66
Lattice="8.30029796 0.0 0.0 3.4518368106151995 7.983212424218131 0.0 4.830148966838587 -1.552956182481327 10.399160930403344" Properties=species:S:1:pos:R:3:spacegroup_kinds:I:1:forces:R:3 spacegroup="P 1" unit_cell=conventional occupancy="_JSON {\"0\": {\"Cd\": 1}, \"1\": {\"Cd\": 1}, \"2\": {\"Cd\": 1}, \"3\": {\"Cd\": 1}, \"4\": {\"H\": 1}, \"5\": {\"H\": 1}, \"6\": {\"H\": 1}, \"7\": {\"H\": 1}, \"8\": {\"H\": 1}, \"9\": {\"H\": 1}, \"10\": {\"H\": 1}, \"11\": {\"H\": 1}, \"12\": {\"H\": 1}, \"13\": {\"H\": 1}, \"14\": {\"H\": 1}, \"15\": {\"H\": 1}, \"16\": {\"H\": 1}, \"17\": {\"H\": 1}, \"18\": {\"H\": 1}, \"19\": {\"H\": 1}, \"20\": {\"H\": 1}, \"21\": {\"H\": 1}, \"22\": {\"C\": 1}, \"23\": {\"C\": 1}, \"24\": {\"C\": 1}, \"25\": {\"C\": 1}, \"26\": {\"C\": 1}, \"27\": {\"C\": 1}, \"28\": {\"C\": 1}, \"29\": {\"C\": 1}, \"30\": {\"C\": 1}, \"31\": {\"C\": 1}, \"32\": {\"C\": 1}, \"33\": {\"C\": 1}, \"34\": {\"C\": 1}, \"35\": {\"C\": 1}, \"36\": {\"C\": 1}, \"37\": {\"C\": 1}, \"38\": {\"C\": 1}, \"39\": {\"C\": 1}, \"40\": {\"N\": 1}, \"41\": {\"N\": 1}, \"42\": {\"O\": 1}, \"43\": {\"O\": 1}, \"44\": {\"O\": 1}, \"45\": {\"O\": 1}, \"46\": {\"O\": 1}, \"47\": {\"O\": 1}, \"48\": {\"O\": 1}, \"49\": {\"O\": 1}, \"50\": {\"O\": 1}, \"51\": {\"O\": 1}, \"52\": {\"O\": 1}, \"53\": {\"O\": 1}, \"54\": {\"O\": 1}, \"55\": {\"O\": 1}, \"56\": {\"O\": 1}, \"57\": {\"O\": 1}, \"58\": {\"O\": 1}, \"59\": {\"O\": 1}, \"60\": {\"O\": 1}, \"61\": {\"O\": 1}, \"62\": {\"O\": 1}, \"63\": {\"O\": 1}, \"64\": {\"O\": 1}, \"65\": {\"O\": 1}}" energy=-34.74336242675781 free_energy=-34.74336242675781 stress="-0.7406297922134399 -0.26605647802352905 -0.12797604501247406 -0.26605647802352905 -0.5797911882400513 0.3940708041191101 -0.12797604501247406 0.3940708041191101 -0.7670679092407227" pbc="T T T"
Cd       8.64740656       1.84454152       0.76534051        0     -24.52049255      26.15483475      65.42847443
Cd       8.95366834       5.09770382       9.46763604        1      -1.75212026     -26.89308739     -12.97401810
Cd      10.79420690       4.58374226       4.77716999        2     -16.61845207      -5.54209328     -30.68483543
Cd       5.35637763       2.54453976       5.69887232        3       7.17309761      -2.44267988      -0.75443524
H        4.60054581       8.00572134       2.73701110        4       5.61129665       0.93551058       2.68911195
H       12.60558726      -0.49517945       9.25625869        5       0.67331910       3.31929159      -4.22776556
H       10.20778394       0.88263457       2.47463963        6       6.34683990      -2.70839572       1.78562117
H        7.75012319       6.19274492       8.12333741        7    -114.95278931    -124.66564178     114.56645203
H       12.85722230       6.11462088       4.54575671        8       3.17921162      -5.49298573      -1.11647749
H        4.74442545       0.20800020       6.94452676        9       3.05230522      -3.57505322      -1.31695974
H       12.42910858       6.46402285       4.60390425       10     -11.15719414       7.20295572      -0.55428809
H        4.86970469       0.93673174       4.09825301       11       0.12205559      -0.70157886      -0.01820185
H        9.78166951       5.82679634       6.20708639       12      -1.63739514      -0.23631428      -5.13195801
H        7.84691601       0.22095765       4.30880288       13      -0.87804824      -2.57882643       1.15063083
H       10.22952305       5.02421320       6.92668976       14       2.11078691      -5.10775518       1.96407139
H        7.05685067       1.97642980       3.69841282       15      -1.75860381       0.07714552      -2.04596472
H       10.56840849       2.41000294       5.14205074       16      -4.42848587      -0.08913416      -2.89785171
H        6.30002978       4.87868035       4.25782622       17     -47.33365250      -7.70371628    -170.43121338
H        8.41901953       2.20520287       4.80290800       18       2.23319674       0.15060082      -1.89688361
H        8.41970366       4.71715488       5.21569648       19       3.37512398       0.99744344       3.16911507
H       13.45992762       6.05704793       9.77031630       20      -6.14916229      -2.34142947       1.65650702
H        3.66116405       1.65594241       1.10712218       21      -6.14593983      -2.54181433       0.17938781
C       11.64125173       0.31958280       9.21001334       22     -30.94787025     -64.62055206      44.60236359
C        4.28069486       4.83252748       1.55995670       23      18.19952583      42.31012726     -29.40244865
C       12.07764600       1.36145021      10.19475426       24      15.85823536      19.04397583      19.57963943
C        3.92679935       4.29651040       1.93057781       25     -31.61920929     -37.98957443      28.21257782
C       11.95040644       4.32588025       8.65232367       26      -7.53234482      22.87498856       0.86248732
C        5.42137591       3.23942551       1.06579488       27      22.45536613     -20.81523132       5.27403641
C       12.34982883       3.35333979       8.52761432       28       6.67253780     -23.39779282      -4.04690170
C        4.92079350       2.26340475       2.13456277       29       9.33429050       5.26912403      -3.43417978
C       12.32310558       5.43475353       9.90606762       30       8.92397881       1.77514935      -3.71678591
C        3.69940246       2.32479919       0.02231997       31      45.76396942     -33.61489105      -8.82244301
C        9.53510584       5.99373589      -0.71669279       32      -5.66538525      -3.34578609       3.60456610
C        7.89513705       1.16729158      10.47617143       33     -65.50162506      37.24420166       9.81941700
C       10.28436349       7.26840294       1.48601434       34      -4.84823704       7.00639343       4.50442696
C        7.72095558      -0.95742336       8.77679084       35      79.44016266      33.79508972    -173.12196350
C        9.21073559       3.70181483       1.46816999       36      38.70925903     135.61732483    -206.46426392
C        7.26920858       2.47417029      10.23703126       37     -10.13557243      -9.53358364       7.78518057
C        9.05091365       3.53826096       2.24129188       38     983.28771973     544.30169678     410.01293945
C        7.80197407       2.04817322       8.85986861       39      73.12413025     -67.28518677      -4.52891207
N        8.07468897       3.93630063       1.06543536       40     -51.97134018      68.56503296    -237.17980957
N        9.16382333       1.98169500      11.07601697       41      -8.51017094       1.67805052       8.50545692
O       11.93941248       0.88287383       8.85654750       42      33.57718277      56.28260040     -41.02507782
O        4.89750092       6.23844144       1.82722130       43      -1.97318888      12.36563110     -24.52576828
O       11.61927320       2.13835139       7.56835569       44       5.94337416       5.33802795       2.84680843
O        4.95332228       5.86813112       2.79617424       45       2.35666776     -10.71019936      25.39456558
O       12.08622345       4.62944675       6.70250494       46       4.31465721      -1.84462643       8.09990311
O        4.74993731       2.90563512       4.11246082       47     -25.81219482      -1.21301162       5.87983418
O        9.88923928       3.40857534       7.07920505       48      -0.72069347       4.17756557       3.95688629
O        5.69372551       3.08190371       3.70509728       49      15.40390587       1.53942609     -11.13703346
O       11.48021828       7.97350131       0.86412107       50     -14.65900040     -14.98549080       5.15201664
O        5.82299645      -1.39903428      10.04260535       51       9.75471115      22.04270935      -5.24860001
O        8.91004193       8.08872979       2.06480387       52       7.74705505      -8.66424751      -6.08006859
O        7.48675057      -1.08293422       9.35080316       53     -72.86835480     -31.58033371     174.95175171
O        9.27178549       4.84875476       2.56171260       54      -1.06607056     -22.39322281      27.06837654
O        6.47449173       0.97414238       7.27168597       55      -2.69117570       0.03817017       0.44277149
O        8.59675083       3.26348369       2.07873763       56    -938.84173584    -705.22180176     -81.92242432
O        7.28660845       2.56659941       8.87276999       57     -69.99761963      71.46586609      -0.50624990
O        8.60420144      -0.45589167       1.87700765       58      -3.67013550      -0.20337200       4.71184826
O        8.00879660       6.47261964       7.86214654       59     116.68627167     123.47726440    -118.65011597
O       11.20625412       7.07304392       5.46908815       60       0.87421125       1.54588532      -2.22803450
O        5.41958489      -0.48591846       6.16188974       61      -3.54110050       6.89056110       2.76350021
O        9.06041348       5.22357444       5.87860668       62      -3.45870686      -2.65935469      -2.88147020
O        7.40192759       1.09921215       5.82008881       63       2.48079562       0.69509542       0.74159312
O        9.94472615       2.59549247       4.17285310       64       7.33923435     -23.21053314      31.14672852
O        6.40186872       4.89629964       4.61429661       65      51.23982620      11.73160744     170.46427917
66
Lattice="8.30029796 0.0 0.0 3.4518368106151995 7.983212424218131 0.0 4.830148966838587 -1.552956182481327 10.399160930403344" Properties=species:S:1:pos:R:3:spacegroup_kinds:I:1:forces:R:3 spacegroup="P 1" unit_cell=conventional occupancy="_JSON {\"0\": {\"Cd\": 1}, \"1\": {\"Cd\": 1}, \"2\": {\"Cd\": 1}, \"3\": {\"Cd\": 1}, \"4\": {\"H\": 1}, \"5\": {\"H\": 1}, \"6\": {\"H\": 1}, \"7\": {\"H\": 1}, \"8\": {\"H\": 1}, \"9\": {\"H\": 1}, \"10\": {\"H\": 1}, \"11\": {\"H\": 1}, \"12\": {\"H\": 1}, \"13\": {\"H\": 1}, \"14\": {\"H\": 1}, \"15\": {\"H\": 1}, \"16\": {\"H\": 1}, \"17\": {\"H\": 1}, \"18\": {\"H\": 1}, \"19\": {\"H\": 1}, \"20\": {\"H\": 1}, \"21\": {\"H\": 1}, \"22\": {\"C\": 1}, \"23\": {\"C\": 1}, \"24\": {\"C\": 1}, \"25\": {\"C\": 1}, \"26\": {\"C\": 1}, \"27\": {\"C\": 1}, \"28\": {\"C\": 1}, \"29\": {\"C\": 1}, \"30\": {\"C\": 1}, \"31\": {\"C\": 1}, \"32\": {\"C\": 1}, \"33\": {\"C\": 1}, \"34\": {\"C\": 1}, \"35\": {\"C\": 1}, \"36\": {\"C\": 1}, \"37\": {\"C\": 1}, \"38\": {\"C\": 1}, \"39\": {\"C\": 1}, \"40\": {\"N\": 1}, \"41\": {\"N\": 1}, \"42\": {\"O\": 1}, \"43\": {\"O\": 1}, \"44\": {\"O\": 1}, \"45\": {\"O\": 1}, \"46\": {\"O\": 1}, \"47\": {\"O\": 1}, \"48\": {\"O\": 1}, \"49\": {\"O\": 1}, \"50\": {\"O\": 1}, \"51\": {\"O\": 1}, \"52\": {\"O\": 1}, \"53\": {\"O\": 1}, \"54\": {\"O\": 1}, \"55\": {\"O\": 1}, \"56\": {\"O\": 1}, \"57\": {\"O\": 1}, \"58\": {\"O\": 1}, \"59\": {\"O\": 1}, \"60\": {\"O\": 1}, \"61\": {\"O\": 1}, \"62\": {\"O\": 1}, \"63\": {\"O\": 1}, \"64\": {\"O\": 1}, \"65\": {\"O\": 1}}" energy=-29.872596740722656 free_energy=-29.872596740722656 stress="-0.21526150405406952 -0.03655289113521576 -0.10378000140190125 -0.03655289113521576 -0.5143172740936279 -0.1652904897928238 -0.10378000140190125 -0.1652904897928238 -0.4626536965370178" pbc="T T T"
Cd       9.58734517       1.09936186       1.69473494        0      31.33416367      36.19776917      36.51472473
Cd       9.05808523       5.33416442       8.79024093        1      -2.06442285      -1.89454889       7.22272158
Cd       9.84913925       4.12433651       4.09125714        2       3.85518980      -3.62886286     -32.57289124
Cd       6.07736400       2.35580965       5.92652137        3       5.23673534       3.66725707       9.24498749
H        5.48336397       8.76316703       2.87539532        4     -12.68471241      -5.47685862      -8.75844765
H       13.20978357      -0.26546929       9.06705087        5      24.25632095      11.06302452      28.72735023
H        9.29198755       0.03947722       1.75779149        6      47.58617401       4.11702347     -12.79567051
H        6.92682253       5.85158609       7.53854605        7       1.43283200      -0.49350870       1.11805534
H       13.41141199       6.04809783       3.96761269        8       2.49482417      -0.02362997      -2.30797482
H        5.44957057       0.74313124       5.95640788        9       0.43106413      -3.16183114       0.07650554
H       12.84063725       7.44815418       4.59897368       10      -1.98645103       0.91803616       2.11529446
H        4.42573797       1.37934236       3.27180505       11      -0.39340317       2.35288882      -0.17296600
H        9.65235746       5.47503339       7.05407877       12       0.90711832      -0.94754887      -4.91459942
H        8.12174688       0.36496208       5.03101758       13      -4.24529028      -1.94995570       1.07739317
H        9.66437661       4.70094908       7.40613846       14     -22.17667007      39.17366028      25.06103897
H        7.42079920       1.21403895       3.05750971       15       0.06486583       2.32248807      -2.53777409
H        9.72800148       3.31119459       5.99316055       16      -1.21064270      -1.13541555       1.31997216
H        5.34984377       4.58424279       4.32963891       17     -69.73039246     -49.24629211    -168.34643555
H        8.92651362       2.35005613       5.47883653       18      -0.99745834      -0.82784390      -0.16019648
H        8.18939520       4.17348375       5.19712375       19      -4.73701763      -0.42463773       1.04921973
H       14.13935692       6.26981769       9.56550671       20       1.28999329      -0.97171223       0.57778615
H        3.09668709       1.39934525       1.96134120       21       5.26766872       3.55363560      -0.69202316
C       10.72982328       1.27299241       8.66008908       22      -0.03621199      -4.13148737      -2.32000875
C        3.62634553       5.69318409       1.44188180       23      -1.05027270       3.87375784      -1.52895355
C       11.64579688       0.67702307      10.74034335       24      -9.08045292       1.67631555       2.58831835
C        4.72499400       3.46115297       1.01131159       25     -61.08754730      70.11685181       8.41393566
C       12.51654233       3.85581212       8.07471687       26     -16.51774788      17.01320839      -3.86755848
C        5.17724453       2.71881476       0.33080810       27     -20.74954033     -30.95351410    -115.82718658
C       13.18314790       3.00681078       8.28077874       28      14.17316341     -13.36021996       4.39325094
C        5.41462514       1.32670393       1.91067631       29      -1.30197585      -1.15941787      -3.08542347
C       13.31111652       4.73715919       9.45535452       30       3.00252962      -1.79678619       0.54476273
C        3.13232631       1.66111017       0.80082893       31      -7.35866356       1.13245893       9.57207394
C       10.25538726       6.67426620      -0.47631157       32       0.25516486       2.44157267       0.40320483
C        7.00273017       1.97404777      10.04404648       33     -20.70838165      12.14505386     120.79946899
C       10.36333734       6.30693549       1.43612543       34       6.72536278      -7.73139477       1.50103760
C        8.24817445      -0.94348879       7.81802187       35      -4.00141382      -5.72656536       5.52561140
C        9.75172129       3.98320505       0.61123228       36      -6.69643354      -2.75231647       9.10035324
C        6.34366884       2.16695099       9.59481851       37     -51.44644547      18.27370071      -5.06222773
C        8.68848239       3.50623216       1.90803385       38      16.43518257      26.49960136      30.00164795
C        8.77718622       1.63614228       8.67196911       39      -1.93925738       0.79878706       0.15747559
N        8.24478620       3.91906759       0.38190545       40     -10.83868599       0.39053702       7.52612829
N       10.12539276       1.35627741      11.44801355       41      81.62348938     -29.64360809     104.03129578
O       11.50791806       0.50632965       7.97355618       42      -3.26300788       3.65705109       3.19918108
O        4.85450991       6.59580794       2.26473223       43       0.59487844     -17.24760818     -26.36923218
O       11.79693164       2.97465886       6.61632539       44      -0.17211509       2.72205544       1.65791750
O        4.74750221       6.82594456       3.18202029       45      -3.35785437      12.61470795      19.42141151
O       11.43284920       5.22129703       7.67919190       46       1.30288029      -0.92562902      -2.10090971
O        4.89222624       2.05848939       4.41742736       47      -4.80687809       1.85168827       2.38882756
O        9.95684074       4.22681920       7.08040775       48      27.36608124     -36.42386627     -21.87660789
O        4.85906438       2.46666159       3.12410547       49       4.22052574       2.74268126      -5.10155106
O       11.91150739       8.92601620       0.18827986       50      94.35356140     535.44256592     -92.03005981
O        4.89040579      -1.13125436      10.66572602       51    -111.00257874    -541.37670898      68.40125275
O        9.25631294       8.51360868       2.61385707       52       5.00178862      -6.99793339       0.45498440
O        7.35776310      -0.59956067       9.28926420       53       1.89984846      -7.68183613      -1.77309656
O        9.70301666       5.46811962       2.40952609       54      -0.51427311       1.84378374      -4.62602949
O        7.38621671       1.14115451       8.22815139       55      -3.36998224      -0.25190616     -13.25451279
O        8.61134075       2.91463726       1.28686406       56      -3.84827065     -26.51691818     -38.78190994
O        7.17089960       1.84194748       9.39002124       57      82.63417053     -30.35285950    -110.74540710
O        8.73625545      -0.17019031       1.89244112       58     -49.97159958     -23.35568237      16.30754471
O        7.92559777       7.45756315       8.57616983       59     -22.86871719     -15.13362694     -29.90130234
O       10.40502786       6.77127183       4.66168185       60      -0.62286663       0.13055539       0.30215040
O        4.88183399      -0.48748987       7.10791094       61      -0.31525570      -0.07156956       1.28486478
O        9.85253167       4.23358206       5.29878819       62       6.12243080       3.03958273      19.88528824
O        6.82959634       0.15003394       5.03666044       63       5.30270290      -2.12131500      -2.78426027
O       10.90692798       1.61295556       4.58372792       64      -6.10988331       4.33727264      -5.86348295
O        5.52157476       4.70203148       4.74926622       65      68.09207916      49.78582764     168.19165039
66
Lattice="8.30029796 0.0 0.0 3.4518368106151995 7.983212424218131 0.0 4.830148966838587 -1.552956182481327 10.399160930403344" Properties=species:S:1:pos:R:3:spacegroup_kinds:I:1:forces:R:3 spacegroup="P 1" unit_cell=conventional occupancy="_JSON {\"0\": {\"Cd\": 1}, \"1\": {\"Cd\": 1}, \"2\": {\"Cd\": 1}, \"3\": {\"Cd\": 1}, \"4\": {\"H\": 1}, \"5\": {\"H\": 1}, \"6\": {\"H\": 1}, \"7\": {\"H\": 1}, \"8\": {\"H\": 1}, \"9\": {\"H\": 1}, \"10\": {\"H\": 1}, \"11\": {\"H\": 1}, \"12\": {\"H\": 1}, \"13\": {\"H\": 1}, \"14\": {\"H\": 1}, \"15\": {\"H\": 1}, \"16\": {\"H\": 1}, \"17\": {\"H\": 1}, \"18\": {\"H\": 1}, \"19\": {\"H\": 1}, \"20\": {\"H\": 1}, \"21\": {\"H\": 1}, \"22\": {\"C\": 1}, \"23\": {\"C\": 1}, \"24\": {\"C\": 1}, \"25\": {\"C\": 1}, \"26\": {\"C\": 1}, \"27\": {\"C\": 1}, \"28\": {\"C\": 1}, \"29\": {\"C\": 1}, \"30\": {\"C\": 1}, \"31\": {\"C\": 1}, \"32\": {\"C\": 1}, \"33\": {\"C\": 1}, \"34\": {\"C\": 1}, \"35\": {\"C\": 1}, \"36\": {\"C\": 1}, \"37\": {\"C\": 1}, \"38\": {\"C\": 1}, \"39\": {\"C\": 1}, \"40\": {\"N\": 1}, \"41\": {\"N\": 1}, \"42\": {\"O\": 1}, \"43\": {\"O\": 1}, \"44\": {\"O\": 1}, \"45\": {\"O\": 1}, \"46\": {\"O\": 1}, \"47\": {\"O\": 1}, \"48\": {\"O\": 1}, \"49\": {\"O\": 1}, \"50\": {\"O\": 1}, \"51\": {\"O\": 1}, \"52\": {\"O\": 1}, \"53\": {\"O\": 1}, \"54\": {\"O\": 1}, \"55\": {\"O\": 1}, \"56\": {\"O\": 1}, \"57\": {\"O\": 1}, \"58\": {\"O\": 1}, \"59\": {\"O\": 1}, \"60\": {\"O\": 1}, \"61\": {\"O\": 1}, \"62\": {\"O\": 1}, \"63\": {\"O\": 1}, \"64\": {\"O\": 1}, \"65\": {\"O\": 1}}" energy=229.91403198242188 free_energy=229.91403198242188 stress="-0.7708222270011902 -0.2863287329673767 -0.45322030782699585 -0.2863287329673767 -0.24337200820446014 -0.20600292086601257 -0.45322030782699585 -0.20600292086601257 -0.8260957598686218" pbc="T T T"
Cd      10.17106049       0.47033163       2.67199743        0       4.47582436      17.95287704     -50.74971771
Cd       9.99475530       4.44984470       8.04775422        1     -84.84973145     158.25799561     104.77189636
Cd      10.38794718       5.05767050       4.17809839        2      -5.13252258      -4.87453651     -14.94626904
Cd       5.36982110       2.31100127       6.65551872        3       0.01592684      15.97550774      32.18617249
H        5.78136538       9.71873165       3.44812920        4      -1.41978121      20.93743324       6.50787067
H       13.92718031      -0.93499200       9.49183309        5      17.86178780      17.34022903      67.94322205
H        8.91464741      -0.90986432       2.03634617        6      19.90736771      27.48100471      23.22181129
H        7.49949287       6.66582762       8.31862834        7      39.67843628     -21.32809258     191.49450684
H       13.32186220       5.83430024       4.03548924        8       0.72822678      -9.62259102       1.07133079
H        4.85635368       1.12649925       5.67502326        9      -9.83573818      -0.94527626     -18.27857780
H       13.80544393       7.11178610       5.51711582       10      -0.47760111      -4.86786270       1.33886003
H        3.61818421       2.33484720       3.22359272       11     -15.58315372      22.54123878      15.07026768
H       10.45527685       4.51478236       6.76598174       12      13.12872505     -15.10821915      -9.07180119
H        8.24744423       0.13627097       4.94280144       13      -4.66967821       0.86026859       2.08810139
H       10.13883712       5.43344832       6.70169215       14       2.34673595      14.70069027       5.91253185
H        6.79664976       0.48516904       3.17371172       15      -0.55237377      -5.58995438       1.07745528
H        9.29651103       3.88930773       6.70118505       16     -11.69226837       5.20936203     -10.37521172
H        6.25180390       4.38693976       5.26889975       17      -5.74470091      -8.87663555      10.84449387
H        9.89546640       2.19006682       6.30155563       18      -6.26824999      -2.86044025      -3.82846594
H        7.40222056       3.48553374       4.77904336       19      -3.39882135      -4.97998667      10.27456856
H       14.47552229       6.43929413       8.75981130       20      10.89535332      22.76044083     -21.89512825
H        3.82231159       1.73546362       2.51319849       21       1.55629539      -1.13376808      -8.43834877
C        9.86917763       0.28301219       8.36892680       22     -13.57444763       5.45830441       1.04297185
C        3.80938551       5.36435367       1.61129294       23       9.91349411       3.56626511       6.89379930
C       10.91186003       1.57146026      11.64000090       24      18.32977867     -26.20217514      24.62158585
C        3.77603441       2.87495309       1.09192947       25     -42.48490143     -25.23554611      83.31894684
C       13.38014526       3.34614515       9.03985715       26     -58.38579941      99.31373596     -56.57422638
C        4.44127892       2.55358503       1.00517338       27      76.03771973     -50.07522202      11.29128551
C       12.68214511       3.75127220       7.47151402       28       1.45387340      -0.69605494       4.23423147
C        6.39931580       0.86410840       1.04184837       29      20.35733795       3.37950277       1.07971263
C       13.59799156       5.72672265       8.49806852       30      -0.00021410       0.11442709       2.73812747
C        3.49128191       2.34520782       1.68053395       31      58.40806580     -37.34685898     -26.84281158
C        9.93900652       7.58416294      -0.99560654       32       1.78115106     -23.58935165       9.41702652
C        6.16424076       1.45138293       9.89473675       33     396.61749268     667.68395996    -733.43200684
C        9.67650574       5.64569736       0.90583631       34     -16.66075134     -26.63069153     -17.52996445
C        7.97537988      -1.47268541       8.68513528       35     -23.11528397     -37.77876663      -8.87738991
C       10.46365580       3.44602320       0.44122322       36     485.85894775     431.32476807      40.26055527
C        6.79476767       2.07846165       9.40702663       37    -154.67076111     -53.17391968    -235.68034363
C        9.23103724       4.20631321       2.63329697       38    -156.18399048     -35.50576782       4.32453394
C        9.35416073       2.24821678       7.87174039       39       9.73212910       7.72640514      23.60630417
N        8.31679694       3.15503708      -0.47218190       40     190.45291138    -281.08807373    -271.24206543
N       10.99958702       2.26715983      11.16945979       41      30.42831230      37.50717545     -10.58425236
O       11.53231515       0.80893457       7.01909950       42     -16.01515007      -2.96217299     -28.30106544
O        4.09460773       6.49538350       1.47931658       43      36.90438843     -10.32359314     -18.90036392
O       10.80177470       3.57576097       7.41897143       44     106.62341309    -122.20356750     -52.22426605
O        3.95494259       6.25741042       3.71576617       45      -2.79344463       3.66074133       2.00218439
O       12.41425314       5.95798207       8.56557716       46      -4.00481319     -26.54229355      -6.48137712
O        4.23634364       2.03010592       3.45073604       47       3.21386290       6.16744566     -13.67654705
O       10.60485469       3.41230689       6.48047294       48      21.44175148     -19.51106071      16.69721603
O        4.14415131       3.11458160       2.37148120       49      14.11234379     -55.88340378     -40.37596130
O       12.76721247       9.69880627      -0.55385221       50    -229.17802429      -9.24337006    -248.31430054
O        5.28057958      -1.48518501      10.42510742       51      -4.41873455      19.01157761     -40.69778442
O        9.29111669       8.17765742       2.19429568       52     -15.44545555      -2.78289223      16.77588081
O        8.02618824      -0.04211013       9.91414427       53     -44.22107697      45.25480270     -14.22000027
O        9.83012454       4.48224020       2.58537383       54     123.30118561      44.40538406     -18.28985405
O        7.03347937       0.68389968       7.32923640       55      39.82774734     -34.02457809     -28.59439278
O        8.06188523       3.08049462       2.06992884       56      24.50485802       4.94675350       1.88760936
O        6.22859189       1.42373667      10.27330718       57    -774.79254150    -781.05883789    1459.48242188
O        8.13402728      -1.13394228       1.74149648       58     -39.70549011      19.16511917      10.11587811
O        7.38604842       6.73445462       7.87122540       59     -47.22644806       9.85205936    -181.16355896
O       10.99562353       6.79109448       4.77360793       60      -2.61466193      10.44811916       7.24476624
O        4.65936299      -0.60868372       7.31481976       61      -1.27613568       5.18071795      -4.20705414
O       10.62844145       3.83393509       4.86094487       62      -7.99907684     -17.26686859      -5.16096926
O        7.22294665      -0.79000296       6.03466171       63       4.21219349       5.90141058     -29.74459839
O       11.60443917       0.67339110       5.56291934       64      16.81368637       5.19719791      25.84563828
O        5.81491896       5.07934440       3.88671631       65       3.47055793       0.02945042       2.01501513
