70
Lattice="8.01026706 0.0 0.0 -3.284411536930503 8.710237780508104 0.0 -0.6710293140943294 -1.8343230343131143 9.540785833449137" Properties=species:S:1:pos:R:3:spacegroup_kinds:I:1:forces:R:3 spacegroup="P 1" unit_cell=conventional occupancy="_JSON {\"0\": {\"Zn\": 1}, \"1\": {\"Zn\": 1}, \"2\": {\"H\": 1}, \"3\": {\"H\": 1}, \"4\": {\"H\": 1}, \"5\": {\"H\": 1}, \"6\": {\"H\": 1}, \"7\": {\"H\": 1}, \"8\": {\"H\": 1}, \"9\": {\"H\": 1}, \"10\": {\"H\": 1}, \"11\": {\"H\": 1}, \"12\": {\"H\": 1}, \"13\": {\"H\": 1}, \"14\": {\"H\": 1}, \"15\": {\"H\": 1}, \"16\": {\"H\": 1}, \"17\": {\"H\": 1}, \"18\": {\"H\": 1}, \"19\": {\"H\": 1}, \"20\": {\"H\": 1}, \"21\": {\"H\": 1}, \"22\": {\"H\": 1}, \"23\": {\"H\": 1}, \"24\": {\"H\": 1}, \"25\": {\"H\": 1}, \"26\": {\"H\": 1}, \"27\": {\"H\": 1}, \"28\": {\"C\": 1}, \"29\": {\"C\": 1}, \"30\": {\"C\": 1}, \"31\": {\"C\": 1}, \"32\": {\"C\": 1}, \"33\": {\"C\": 1}, \"34\": {\"C\": 1}, \"35\": {\"C\": 1}, \"36\": {\"C\": 1}, \"37\": {\"C\": 1}, \"38\": {\"C\": 1}, \"39\": {\"C\": 1}, \"40\": {\"C\": 1}, \"41\": {\"C\": 1}, \"42\": {\"C\": 1}, \"43\": {\"C\": 1}, \"44\": {\"C\": 1}, \"45\": {\"C\": 1}, \"46\": {\"C\": 1}, \"47\": {\"C\": 1}, \"48\": {\"C\": 1}, \"49\": {\"C\": 1}, \"50\": {\"C\": 1}, \"51\": {\"C\": 1}, \"52\": {\"C\": 1}, \"53\": {\"C\": 1}, \"54\": {\"C\": 1}, \"55\": {\"C\": 1}, \"56\": {\"N\": 1}, \"57\": {\"N\": 1}, \"58\": {\"N\": 1}, \"59\": {\"N\": 1}, \"60\": {\"O\": 1}, \"61\": {\"O\": 1}, \"62\": {\"O\": 1}, \"63\": {\"O\": 1}, \"64\": {\"O\": 1}, \"65\": {\"O\": 1}, \"66\": {\"O\": 1}, \"67\": {\"O\": 1}, \"68\": {\"O\": 1}, \"69\": {\"O\": 1}}" energy=-455.80511474609375 free_energy=-455.80511474609375 stress="-0.008301012217998505 -0.00655699335038662 -0.004537356551736593 -0.00655699335038662 -0.025854993611574173 -0.0014259517192840576 -0.004537356551736593 -0.0014259517192840576 0.0012143236817792058" pbc="T T T"
Zn       2.42682200       4.89759721       4.84482830        0      -0.27027607      -0.79790783       0.28568015
Zn       1.61633613       1.93515913       4.74218223        1       0.20535104       0.89939535      -0.85258293
H        0.01454556       6.03079190       8.51272552        2       0.48818105       1.72924423      -1.02922583
H        4.07575527       0.87359392       1.03828658        3      -0.12119436      -0.33955446       0.03445788
H       -0.69019022       7.72045436       1.04721745        4      -1.46052837       2.93063307       1.50850224
H        4.82306432      -0.88738083       8.44696188        5      -0.49772573       0.31227875       0.61352980
H       -0.14114671       3.48049635       1.13506383        6      -0.39865103      -1.54585838       1.00400805
H        4.22059947       3.39142707       8.40030495        7       0.11502840       0.18142535      -0.12830471
H        0.54632570       1.75161738       8.70406606        8       0.44217485      -0.79759973      -0.44310555
H        3.56502113       5.06683242       0.92521502        9       0.18236475      -0.13841866      -0.12305382
H        5.65334736       4.58613895       3.73556787       10      -0.40354919      -0.06775653       0.89866304
H       -1.54578198       2.28872350       5.77524650       11      -0.55818200       0.36990684       0.39077681
H        6.05818239       3.59254427       2.33521623       12       0.57216817       0.88924962       0.88941467
H       -2.00323368       3.32031137       7.23245797       13      -0.24897981      -0.73249865      -0.64965224
H        4.45734638       6.34029121       2.86096861       14      -0.85357356       0.82350594       0.45942792
H       -0.38612478       0.47825444       6.70813240       15      -0.56288677       0.76835775       0.36297387
H        4.68516099      -0.72141108       5.32461758       16       0.01034306      -0.17319483      -0.17809305
H       -0.59455084       7.64954400       4.22086399       17       0.15988503       0.10597388      -0.20200941
H        5.55806697       1.22003955       3.54095808       18       0.25055972      -1.31908751       0.45539367
H       -1.45619280       5.64569362       6.02347514       19       0.14958099      -0.71798289      -0.06949149
H        0.57011077       0.54822107       2.28149155       20       2.60002708       0.29391694       0.96895325
H        3.46705288       6.37997005       7.33692480       21      -0.16628329      -0.13205849      -0.33696923
H        7.16617722       1.27687151       1.77905942       22      -0.69899410       1.70358253      -0.28531176
H       -3.11952590       5.56128881       7.84263097       23       1.09001791      -2.35878944       0.23785199
H        3.30484319       8.09824283       0.21864271       24       1.16448283       0.21987362       0.41269606
H        0.73626732      -1.25214199       9.34631292       25       0.15607573       0.27971745       0.14658765
H        4.86672022       7.30581329       0.68039783       26      -0.31647319       0.80928242      -0.11614068
H       -0.75168755      -0.47710866       8.84992870       27      -0.45848477       0.81258225       0.00957207
C        1.10688616       3.92709023       7.20250165       28       0.09423560      -1.71149349      -2.30944395
C        3.01908284       2.93915702       2.43330544       29      -0.19279063      -0.96003544      -2.28627563
C        0.35493160       3.88230646       8.46712174       30       0.16099629       0.87603223       0.11690305
C        3.67829902       2.97044469       1.05263416       31       0.02855192      -2.27748442       2.20535111
C       -0.15081570       5.12389351       8.98285031       32      -1.42638731      -3.32639194       2.55806684
C        4.23561796       1.80386676       0.50765914       33      -0.45224190      -0.30678672       0.40527019
C       -0.31009959       6.89700976       0.61723852       34       2.50744772      -4.30211544      -2.47235823
C        4.34199176       0.00344517       8.92296984       35       1.55396891      -0.36526623      -1.74634576
C       -0.53967986       5.60239908       1.22151992       36      -0.81852722       1.84600520       0.37399572
C        4.68013605       1.22061216       8.27069758       37      -3.11559534       1.52789855       3.29908729
C        0.02032257       4.42524667       0.73234435       38       0.64833820       1.46243942      -1.59942317
C        4.07175863       2.41052809       8.82797098       39       0.06046964      -1.25440180       0.79041708
C        0.12941854       2.64278073       9.09701862       40      -0.97127259       1.80683899       0.99015498
C        3.97967147       4.14548068       0.49370372       41       0.72005558       2.74748373      -2.48286057
C       -0.24581420       4.00510709       3.73269351       42      -5.75679684      -4.35027313      -2.76493073
C        4.32507520       2.84208625       5.83907274       43       1.93718898       2.61247826      -0.03444143
C       -1.55322339       4.40720732       3.04312787       44      -0.70668828      -0.50498873      -2.06333399
C        5.66466775       2.49960734       6.53864549       45      -0.17608255      -0.25687897      -0.02193369
C        3.72103976       7.06977404       3.30502339       46       1.06473005      -1.88645911      -0.75054199
C        0.34837844      -0.14852015       6.28353507       47       1.80815721      -3.64458346      -0.19744296
C        5.40144776      -0.82964187       4.51339876       48       0.11801654       0.73898238       0.83509737
C       -1.32663699       7.70246368       5.00528216       49      -1.31515491      -3.37204933       1.72240758
C        5.88005690       0.15122966       3.70804153       50      -0.85207081       2.56304336      -1.61675251
C       -1.82633764       6.63011798       5.86529304       51       2.01181412       2.56953430      -1.61536944
C        7.64791705       0.35417357       1.90345378       52      -2.07005167      -2.07957244      -2.22425056
C       -3.51480370       6.49591240       7.67644814       53      -1.20442021       3.06106520       1.25260258
C        4.38680108       8.32280154       0.54116995       54      -1.30738926      -1.10692012       0.95827729
C       -0.30251051      -1.43294582       9.04146204       55       1.44242311      -1.00904465      -1.72643232
N        6.84228395      -0.37846947       2.84305088       56      -0.56725633      -0.49944422       2.34972119
N       -2.72344655       7.20318583       6.67937639       57      -1.70684719       1.51321673       0.07171431
N        2.87215229       6.75514962       4.30277164       58       0.49738812      -0.29666767      -0.93779612
N        1.20880054       0.06679956       5.28913519       59      -0.53885156       2.27755141       0.05456179
O        1.61074454       5.01699447       6.76330973       60      -0.07527108       0.05664608       0.16265868
O        2.46916466       1.86969371       2.81811085       61      -0.35199782      -1.45303917       0.54441375
O        1.13135898       2.81156510       6.47827997       62      -0.16219717       1.71047211       1.82448411
O        2.98611421       4.00390171       3.05044285       63       0.12655294       2.45122337       1.22516656
O       -0.11614870       2.75440766       3.87001619       64       0.82756925      -1.49388325       0.41361207
O        4.13266592       4.09366354       5.60952183       65       0.34361792       0.37712169       0.66081733
O        0.40395776       4.90851326       4.07718673       66       5.73292875       5.92848015       2.95472431
O        3.60744228       1.95490128       5.40967347       67      -1.52167940      -2.78667045      -0.56321627
O       -1.43805458       5.67129380       2.31991252       68       1.12245381      -1.19542956      -0.67594773
O        5.46770697       1.23247710       7.23474116       69       1.91220760       0.30514526      -1.94495392
70
Lattice="8.01026706 0.0 0.0 -3.284411536930503 8.710237780508104 0.0 -0.6710293140943294 -1.8343230343131143 9.540785833449137" Properties=species:S:1:pos:R:3:spacegroup_kinds:I:1:forces:R:3 spacegroup="P 1" unit_cell=conventional occupancy="_JSON {\"0\": {\"Zn\": 1}, \"1\": {\"Zn\": 1}, \"2\": {\"H\": 1}, \"3\": {\"H\": 1}, \"4\": {\"H\": 1}, \"5\": {\"H\": 1}, \"6\": {\"H\": 1}, \"7\": {\"H\": 1}, \"8\": {\"H\": 1}, \"9\": {\"H\": 1}, \"10\": {\"H\": 1}, \"11\": {\"H\": 1}, \"12\": {\"H\": 1}, \"13\": {\"H\": 1}, \"14\": {\"H\": 1}, \"15\": {\"H\": 1}, \"16\": {\"H\": 1}, \"17\": {\"H\": 1}, \"18\": {\"H\": 1}, \"19\": {\"H\": 1}, \"20\": {\"H\": 1}, \"21\": {\"H\": 1}, \"22\": {\"H\": 1}, \"23\": {\"H\": 1}, \"24\": {\"H\": 1}, \"25\": {\"H\": 1}, \"26\": {\"H\": 1}, \"27\": {\"H\": 1}, \"28\": {\"C\": 1}, \"29\": {\"C\": 1}, \"30\": {\"C\": 1}, \"31\": {\"C\": 1}, \"32\": {\"C\": 1}, \"33\": {\"C\": 1}, \"34\": {\"C\": 1}, \"35\": {\"C\": 1}, \"36\": {\"C\": 1}, \"37\": {\"C\": 1}, \"38\": {\"C\": 1}, \"39\": {\"C\": 1}, \"40\": {\"C\": 1}, \"41\": {\"C\": 1}, \"42\": {\"C\": 1}, \"43\": {\"C\": 1}, \"44\": {\"C\": 1}, \"45\": {\"C\": 1}, \"46\": {\"C\": 1}, \"47\": {\"C\": 1}, \"48\": {\"C\": 1}, \"49\": {\"C\": 1}, \"50\": {\"C\": 1}, \"51\": {\"C\": 1}, \"52\": {\"C\": 1}, \"53\": {\"C\": 1}, \"54\": {\"C\": 1}, \"55\": {\"C\": 1}, \"56\": {\"N\": 1}, \"57\": {\"N\": 1}, \"58\": {\"N\": 1}, \"59\": {\"N\": 1}, \"60\": {\"O\": 1}, \"61\": {\"O\": 1}, \"62\": {\"O\": 1}, \"63\": {\"O\": 1}, \"64\": {\"O\": 1}, \"65\": {\"O\": 1}, \"66\": {\"O\": 1}, \"67\": {\"O\": 1}, \"68\": {\"O\": 1}, \"69\": {\"O\": 1}}" energy=-454.3148193359375 free_energy=-454.3148193359375 stress="-0.015034332871437073 -0.014471326023340225 0.004408498294651508 -0.014471326023340225 -0.02961915358901024 0.001110425335355103 0.004408498294651508 0.001110425335355103 -0.011298086494207382" pbc="T T T"
Zn       2.45844264       4.87390731       4.84202980        0      -0.46071768      -0.49192101       0.62856990
Zn       1.63159996       1.89154527       4.74177152        1       0.16427745       1.28471303      -0.52937555
H        0.03212286       6.02249941       8.54302178        2       1.04304659       5.14515114      -2.61996269
H        4.10200498       0.83920167       1.01050125        3      -0.06787833       0.31457949      -0.38965917
H       -0.67329664       7.75861626       1.08861941        4      -0.02667823      -0.27335924      -0.17644666
H        4.86387905      -0.88862687       8.43785905        5      -0.87232482       0.97303754       1.20784926
H       -0.17649420       3.49213586       1.14396133        6       0.04064663      -0.53253376       0.44306439
H        4.25954409       3.36126797       8.44311664        7       0.07383399       0.20407552      -0.19485483
H        0.57668826       1.72227906       8.69434845        8      -0.48628193       1.07481396       0.52983892
H        3.61194431       5.02379200       0.97081128        9       0.21200834       0.03869487      -0.10842972
H        5.64617456       4.54817704       3.74571623       10      -0.61286408       0.21665551       1.10137308
H       -1.50156169       2.25666017       5.77872312       11      -1.14983535       0.58854663       1.00553441
H        6.07277636       3.58931416       2.35075457       12       0.64505738       0.68218541       1.07095361
H       -1.95669033       3.27337295       7.26710578       13      -0.31498787      -0.39188263      -0.49852437
H        4.43789818       6.34437786       2.90844862       14      -0.75997090       0.82308155       0.24268633
H       -0.39884970       0.46180775       6.67001677       15      -1.83843207       1.88654125       1.11196685
H        4.70953676      -0.76988514       5.28696362       16      -0.30545682       0.22946778       0.15441024
H       -0.54956453       7.60759355       4.24500964       17      -0.36899918       0.40818718       0.05573870
H        5.57002096       1.22306876       3.54436465       18       0.36048436      -0.96843362       0.29301405
H       -1.42392088       5.65100744       6.03719797       19       0.11535209      -0.14181376      -0.23922317
H        0.57067843       0.55892648       2.29589619       20       1.95554638       0.12088388       0.50571370
H        3.50394013       6.39045210       7.32316207       21      -0.12520020      -0.29199031      -0.01009043
H        7.16480701       1.23858048       1.80538698       22      -0.62109721       1.48953080      -0.53634280
H       -3.07469147       5.56199550       7.88912869       23       0.52466977      -1.61393595       0.06011009
H        3.33351699       8.11304020       0.20016720       24       1.23892939      -0.08902472       0.64704025
H        0.76731454      -1.26571975       9.36855579       25      -0.74387121      -0.01368963      -0.19854769
H        4.89679513       7.31959832       0.70251858       26      -0.08449370      -0.08964922      -0.07905126
H       -0.71038801      -0.52467133       8.88272292       27      -0.92824775       1.59663606      -0.11358256
C        1.14728997       3.88810611       7.24234233       28      -0.56783944      -0.48637107      -1.70114374
C        3.05109441       2.92103037       2.44204596       29      -0.47803992       0.24249488      -0.17111972
C        0.39791481       3.90239081       8.48668180       30      -0.12059145       0.30441231       0.63530099
C        3.72177470       2.95800435       1.09347362       31      -0.28941518      -3.55029202       1.99540782
C       -0.10817074       5.16136499       8.95353125       32      -2.46240902      -7.82195568       5.31211996
C        4.26056879       1.80025141       0.48076966       33      -1.81082928      -1.12893510       3.40864563
C       -0.27200992       6.85265630       0.60795925       34       0.69602311      -0.00802419      -0.68910635
C        4.38729450       0.03167252       8.97221194       35       2.82221866      -3.14899206      -3.75518775
C       -0.55420604       5.57416885       1.26351738       36       1.02896786       3.19869828      -1.69601452
C        4.72049235       1.17904131       8.29434795       37      -3.39234829       3.82976723       3.38000560
C        0.06231928       4.46449050       0.75583711       38      -0.24296311      -1.47523367      -0.45913073
C        4.10602219       2.37572647       8.85474807       39       0.11207208      -1.21657264       0.98607337
C        0.13813052       2.66659243       9.13631917       40       0.75147527       0.48300624      -0.89158154
C        4.02774456       4.10744964       0.53895845       41       1.04384649       4.03623772      -3.13135672
C       -0.24382077       3.98357084       3.77965265       42      -4.36905575      -4.37072659      -2.29611206
C        4.35372812       2.80066090       5.82988945       43       3.75524354       8.08484268       1.14488220
C       -1.53947309       4.37841443       3.09109889       44      -0.67939436      -0.70564455      -2.93665457
C        5.68144861       2.49785875       6.56022651       45       0.38024545      -1.40997541      -0.87112069
C        3.70116764       7.09101134       3.32212126       46       3.23639107      -4.28049803      -1.29934204
C        0.31423365      -0.13553341       6.26425645       47       2.80381465      -6.13093901       0.67844039
C        5.43815133      -0.80390424       4.49869425       48       0.18529844      -0.00519603       1.32521248
C       -1.34602701       7.68573954       4.98513320       49      -0.78107893      -2.43789220       2.23015308
C        5.92812514       0.18013683       3.71250470       50      -0.81684828       1.74288845      -1.70576048
C       -1.77928805       6.65885724       5.87877854       51       0.75458819       0.90230411      -0.56184876
C        7.65870553       0.30723017       1.87275485       52      -1.06603622      -0.62794334      -0.71798980
C       -3.48958284       6.51425840       7.71536607       53      -1.38406682       0.29898161       0.32021454
C        4.42006547       8.30190562       0.55828692       54      -2.16702557      -1.06590796      -0.15348729
C       -0.30183648      -1.48161832       9.03631971       55       3.34063673       0.11649623      -0.17693642
N        6.89017362      -0.40398575       2.84380366       56      -1.72132504       1.38889301       2.22752833
N       -2.72668553       7.16107871       6.71138990       57      -0.48086417       3.69362116      -1.60342312
N        2.91506398       6.75634305       4.32716672       58      -0.94732767       0.55985349      -0.45397848
N        1.20040207       0.06666222       5.33892518       59       0.47673529       2.18917775      -1.85108805
O        1.61312251       4.98058912       6.81001273       60       0.83452523       1.12676406      -0.59713769
O        2.51588373       1.83892653       2.86146411       61       0.05350767      -0.53342217       0.05372161
O        1.11468797       2.82673576       6.52080080       62       0.24116758      -0.47059542       0.42000353
O        3.02150741       4.01305689       3.09526491       63       0.05149364       0.03804182      -0.59089339
O       -0.06758744       2.70992408       3.89824214       64       0.45951280       0.15781236       0.32114255
O        4.14701678       4.11973791       5.57358125       65       1.10970664      -2.01231408       1.20705009
O        0.40588642       4.92177179       4.07831599       66       4.92788982       4.50656796       2.50610590
O        3.63504081       1.96057747       5.45373275       67      -4.03446674      -5.76213169      -1.86565089
O       -1.39502974       5.62539637       2.30227831       68      -0.50120592      -1.02825594       1.43016171
O        5.44886886       1.19524321       7.23670586       69       2.64125538       0.59840935      -2.76987553
70
Lattice="8.01026706 0.0 0.0 -3.284411536930503 8.710237780508104 0.0 -0.6710293140943294 -1.8343230343131143 9.540785833449137" Properties=species:S:1:pos:R:3:spacegroup_kinds:I:1:forces:R:3 spacegroup="P 1" unit_cell=conventional occupancy="_JSON {\"0\": {\"Zn\": 1}, \"1\": {\"Zn\": 1}, \"2\": {\"H\": 1}, \"3\": {\"H\": 1}, \"4\": {\"H\": 1}, \"5\": {\"H\": 1}, \"6\": {\"H\": 1}, \"7\": {\"H\": 1}, \"8\": {\"H\": 1}, \"9\": {\"H\": 1}, \"10\": {\"H\": 1}, \"11\": {\"H\": 1}, \"12\": {\"H\": 1}, \"13\": {\"H\": 1}, \"14\": {\"H\": 1}, \"15\": {\"H\": 1}, \"16\": {\"H\": 1}, \"17\": {\"H\": 1}, \"18\": {\"H\": 1}, \"19\": {\"H\": 1}, \"20\": {\"H\": 1}, \"21\": {\"H\": 1}, \"22\": {\"H\": 1}, \"23\": {\"H\": 1}, \"24\": {\"H\": 1}, \"25\": {\"H\": 1}, \"26\": {\"H\": 1}, \"27\": {\"H\": 1}, \"28\": {\"C\": 1}, \"29\": {\"C\": 1}, \"30\": {\"C\": 1}, \"31\": {\"C\": 1}, \"32\": {\"C\": 1}, \"33\": {\"C\": 1}, \"34\": {\"C\": 1}, \"35\": {\"C\": 1}, \"36\": {\"C\": 1}, \"37\": {\"C\": 1}, \"38\": {\"C\": 1}, \"39\": {\"C\": 1}, \"40\": {\"C\": 1}, \"41\": {\"C\": 1}, \"42\": {\"C\": 1}, \"43\": {\"C\": 1}, \"44\": {\"C\": 1}, \"45\": {\"C\": 1}, \"46\": {\"C\": 1}, \"47\": {\"C\": 1}, \"48\": {\"C\": 1}, \"49\": {\"C\": 1}, \"50\": {\"C\": 1}, \"51\": {\"C\": 1}, \"52\": {\"C\": 1}, \"53\": {\"C\": 1}, \"54\": {\"C\": 1}, \"55\": {\"C\": 1}, \"56\": {\"N\": 1}, \"57\": {\"N\": 1}, \"58\": {\"N\": 1}, \"59\": {\"N\": 1}, \"60\": {\"O\": 1}, \"61\": {\"O\": 1}, \"62\": {\"O\": 1}, \"63\": {\"O\": 1}, \"64\": {\"O\": 1}, \"65\": {\"O\": 1}, \"66\": {\"O\": 1}, \"67\": {\"O\": 1}, \"68\": {\"O\": 1}, \"69\": {\"O\": 1}}" energy=-453.2103576660156 free_energy=-453.2103576660156 stress="-0.00859742145985365 -0.01197298988699913 0.004705384839326143 -0.01197298988699913 -0.03695632144808769 0.007718758191913366 0.004705384839326143 0.007718758191913366 -0.004637329373508692" pbc="T T T"
Zn       2.50183446       4.91771839       4.85504852        0      -0.65478420      -1.23613143       0.57864141
Zn       1.67667550       1.84820810       4.75544033        1       0.22856468       1.75432634      -0.44100547
H       -0.00405555       5.98118073       8.55399336        2       1.09217024       6.14269400      -3.30619359
H        4.12717690       0.80439572       0.98352313        3      -0.02211262       0.73105502      -0.18808718
H       -0.66071160       7.73347213       1.06919108        4      -0.08884453       0.04251021      -0.14858010
H        4.84525119      -0.87942732       8.48111482        5      -0.08808542      -0.07545582       0.27656007
H       -0.20939199       3.47336464       1.11246460        6      -0.25344196      -1.54359007       0.91131318
H        4.27613839       3.34785394       8.42515325        7       0.19763586       0.21770218      -0.37190330
H        0.62230798       1.72880409       8.66442811        8      -0.52135694       0.81918168       0.83336866
H        3.65924863       5.04509068       0.99657205        9       0.02764589      -0.13312367      -0.25864744
H        5.61117805       4.55935181       3.78019399       10       1.43564820      -0.52677870      -0.57100987
H       -1.53652492       2.20946063       5.78561318       11       0.03673661       0.25942296       0.36117917
H        6.10536568       3.55016832       2.39618365       12       0.38868263       0.25736970       0.32877219
H       -1.90996599       3.23380636       7.29133700       13      -0.39156178      -0.70017606      -0.87420875
H        4.47474862       6.32457905       2.94788938       14      -0.39193434       0.66431683      -0.06687748
H       -0.41305042       0.46237930       6.70824652       15       0.11674732       0.24863742      -0.03537269
H        4.71059389      -0.77470999       5.33578783       16       0.39731914       0.32065499      -0.82902759
H       -0.52979736       7.57698791       4.22552683       17      -1.02388871       0.69736081       0.75300539
H        5.56855682       1.18285939       3.59194827       18       0.64178157      -1.14132166       0.19806695
H       -1.37909802       5.64214025       6.01199543       19       0.23169020      -0.41507083      -0.10363848
H        0.59047416       0.57875090       2.31350963       20       2.26485300       0.06026298       0.74900556
H        3.52343544       6.34297476       7.32714057       21       0.42355698      -0.17228179       0.35319835
H        7.18383049       1.25449729       1.81717277       22      -0.00546090       0.47749925      -0.64507014
H       -3.03940106       5.51269274       7.92258229       23       0.34460232      -1.20636976       0.02444608
H        3.35371334       8.11559496       0.15469845       24       1.74439263      -0.18427646       1.05664921
H        0.75920314      -1.23606885       9.40975839       25       0.06497025      -0.15854898      -0.12864463
H        4.88920881       7.31948462       0.71294365       26       0.76604176      -1.91538334       0.12396903
H       -0.68430780      -0.50667841       8.89660280       27      -0.47315556      -0.02808779       0.08210954
C        1.16640500       3.92520896       7.27345741       28       0.01128224      -3.41815019      -3.17854238
C        3.07076906       2.90710178       2.45362569       29      -0.21979108       0.55795276      -0.22579822
C        0.42744326       3.85453129       8.53016080       30       0.64602447       1.17388010      -0.60437411
C        3.74371537       2.99078892       1.07742855       31      -1.10086417      -7.43325233       4.09279871
C       -0.07097358       5.11166967       8.92634877       32      -3.15901732      -7.61964321       6.74332905
C        4.30820959       1.80025746       0.51490403       33      -0.64529383      -0.78066242       0.84535390
C       -0.24916112       6.85316904       0.57525082       34       0.75151157      -1.65562701      -0.20300625
C        4.43408149       0.02713299       8.94552885       35      -0.11636192      -3.36591196       0.78787065
C       -0.50666935       5.54389829       1.23817508       36      -0.80235815       4.40534973       0.30132467
C        4.74363276       1.17448139       8.32066601       37      -2.93119049       4.05156994       2.11055660
C        0.06676059       4.42000712       0.77251556       38       0.58330798      -0.83266187      -1.37642312
C        4.14337736       2.35228380       8.80869868       39      -1.54843163      -0.30408964       3.30366230
C        0.18184637       2.63326335       9.17831623       40       0.79352301       0.11530134      -1.44358277
C        3.99823708       4.10351803       0.54406834       41       3.02863002       6.94855213      -5.67778873
C       -0.22860687       3.94002322       3.82806303       42      -3.55004072      -1.78911543      -2.85633898
C        4.39549813       2.79828769       5.80101141       43       2.16852736       4.79269171       0.98973167
C       -1.50238214       4.34786797       3.06672234       44      -2.56726885       0.11065646       0.52355206
C        5.72148297       2.46064037       6.55997826       45      -0.96285576      -1.13514030       0.04058591
C        3.74907174       7.07627945       3.32138859       46       1.10108864      -2.78530431      -0.41630575
C        0.36204826      -0.15157143       6.27009575       47      -1.82370818      -4.92291689       4.57290411
C        5.43184569      -0.80662909       4.49375619       48      -0.13286799      -1.44240963       2.49631238
C       -1.31679269       7.70061622       5.01627727       49       0.01085085      -3.74148178       1.75602055
C        5.97042437       0.13642766       3.72413239       50      -1.99148846       4.16769171      -1.88718772
C       -1.73419829       6.64939155       5.91699061       51       0.69199359       1.39394975      -0.98290467
C        7.69361572       0.29343018       1.89919050       52      -2.02884340       0.40220714      -2.31174970
C       -3.45519656       6.47674755       7.73928030       53      -1.75670218      -0.09583543       0.60917431
C        4.46290386       8.25922636       0.55268940       54      -3.85582304       1.44485021       0.74166620
C       -0.26300099      -1.50889109       9.06482549       55       2.23313284       1.65391850      -1.17589045
N        6.88275705      -0.38545123       2.82415899       56      -0.59418851      -1.73727989       3.18898511
N       -2.69438179       7.11618139       6.75695535       57       0.33157510       4.32449341      -2.67752266
N        2.90456475       6.73900215       4.31770316       58       0.28971937       1.25725782      -1.44235301
N        1.20847089       0.05521017       5.38055818       59       2.43008518       2.71260691      -3.95889664
O        1.65367846       4.98873108       6.80321645       60       0.34247842       0.99723148       0.07002132
O        2.55623424       1.82622793       2.88197130       61      -0.13986176      -1.03628206      -0.27596956
O        1.15017529       2.80405760       6.53063970       62       0.14154512       1.55061674       1.59172201
O        3.04678671       3.97367414       3.13543801       63       0.10181628       0.51999658      -0.62446344
O       -0.04476882       2.69169516       3.92008115       64       0.65694737      -0.96719325       0.69806808
O        4.17711992       4.07204057       5.55804484       65       0.95538259      -0.81949353       1.00516236
O        0.44264949       4.90758602       4.06260356       66       3.92498589       3.10705471       2.22346878
O        3.66574971       1.91532418       5.44358226       67      -2.32886171      -3.71016693      -1.03768408
O       -1.37370363       5.59425820       2.34280591       68       0.91068900      -0.63092864      -0.84073943
O        5.42431918       1.14609483       7.24445941       69       3.66231132       1.27931571      -4.15677023
70