96
Lattice="3.89948469 0.0 0.0 -0.00012933081384179388 15.349469289455145 0.0 1.0215849913809165 -8.21999138137994e-05 18.897507147230833" Properties=species:S:1:pos:R:3:spacegroup_kinds:I:1:forces:R:3 spacegroup="P 1" unit_cell=conventional occupancy="_JSON {\"0\": {\"Cu\": 1}, \"1\": {\"Cu\": 1}, \"2\": {\"Cu\": 1}, \"3\": {\"Cu\": 1}, \"4\": {\"Cu\": 1}, \"5\": {\"Cu\": 1}, \"6\": {\"Cu\": 1}, \"7\": {\"Cu\": 1}, \"8\": {\"H\": 1}, \"9\": {\"H\": 1}, \"10\": {\"H\": 1}, \"11\": {\"H\": 1}, \"12\": {\"H\": 1}, \"13\": {\"H\": 1}, \"14\": {\"H\": 1}, \"15\": {\"H\": 1}, \"16\": {\"H\": 1}, \"17\": {\"H\": 1}, \"18\": {\"H\": 1}, \"19\": {\"H\": 1}, \"20\": {\"H\": 1}, \"21\": {\"H\": 1}, \"22\": {\"H\": 1}, \"23\": {\"H\": 1}, \"24\": {\"H\": 1}, \"25\": {\"H\": 1}, \"26\": {\"H\": 1}, \"27\": {\"H\": 1}, \"28\": {\"H\": 1}, \"29\": {\"H\": 1}, \"30\": {\"H\": 1}, \"31\": {\"H\": 1}, \"32\": {\"H\": 1}, \"33\": {\"H\": 1}, \"34\": {\"H\": 1}, \"35\": {\"H\": 1}, \"36\": {\"H\": 1}, \"37\": {\"H\": 1}, \"38\": {\"H\": 1}, \"39\": {\"H\": 1}, \"40\": {\"C\": 1}, \"41\": {\"C\": 1}, \"42\": {\"C\": 1}, \"43\": {\"C\": 1}, \"44\": {\"C\": 1}, \"45\": {\"C\": 1}, \"46\": {\"C\": 1}, \"47\": {\"C\": 1}, \"48\": {\"C\": 1}, \"49\": {\"C\": 1}, \"50\": {\"C\": 1}, \"51\": {\"C\": 1}, \"52\": {\"C\": 1}, \"53\": {\"C\": 1}, \"54\": {\"C\": 1}, \"55\": {\"C\": 1}, \"56\": {\"C\": 1}, \"57\": {\"C\": 1}, \"58\": {\"C\": 1}, \"59\": {\"C\": 1}, \"60\": {\"C\": 1}, \"61\": {\"C\": 1}, \"62\": {\"C\": 1}, \"63\": {\"C\": 1}, \"64\": {\"C\": 1}, \"65\": {\"C\": 1}, \"66\": {\"C\": 1}, \"67\": {\"C\": 1}, \"68\": {\"C\": 1}, \"69\": {\"C\": 1}, \"70\": {\"C\": 1}, \"71\": {\"C\": 1}, \"72\": {\"C\": 1}, \"73\": {\"C\": 1}, \"74\": {\"C\": 1}, \"75\": {\"C\": 1}, \"76\": {\"C\": 1}, \"77\": {\"C\": 1}, \"78\": {\"C\": 1}, \"79\": {\"C\": 1}, \"80\": {\"Br\": 1}, \"81\": {\"Br\": 1}, \"82\": {\"Br\": 1}, \"83\": {\"Br\": 1}, \"84\": {\"Br\": 1}, \"85\": {\"Br\": 1}, \"86\": {\"Br\": 1}, \"87\": {\"Br\": 1}, \"88\": {\"N\": 1}, \"89\": {\"N\": 1}, \"90\": {\"N\": 1}, \"91\": {\"N\": 1}, \"92\": {\"N\": 1}, \"93\": {\"N\": 1}, \"94\": {\"N\": 1}, \"95\": {\"N\": 1}}" energy=-596.676025390625 free_energy=-596.676025390625 stress="-0.0045187328942120075 0.00106609589420259 0.003213837742805481 0.00106609589420259 -0.01637985371053219 -0.0030149007216095924 0.003213837742805481 -0.0030149007216095924 -0.0034194421023130417" pbc="T T T"
Cu       4.10101105       5.36236219       5.73837149        0      -0.27172834       0.12900855      -0.15008155
Cu       2.25526350      13.09508974       3.73741588        1       0.47738162      -0.26885232       0.15090941
Cu       0.82213756       9.95483404      13.15446713        2       0.26323119      -0.05254243       0.21086873
Cu       2.63015896       2.30615480      15.19201340        3      -0.09885171      -0.39226156      -0.24374372
Cu       3.12529270       4.01281753       7.71794056        4      -0.21154380       0.18373960      -0.18601547
Cu       3.24010072      11.72013290       1.76854804        5       0.23099719       0.14760561       0.17845500
Cu       1.83351282      11.34702752      11.22395721        6       0.10847554      -0.18515289      -0.02072027
Cu       1.68657241       3.63826481      17.15890975        7      -0.18222037      -0.13114558      -0.14788011
H        0.83886444       6.63445527       8.43138683        8       0.14356911       0.58147365      -0.34440303
H        1.63067166      14.29785875       1.03219216        9       0.04114833      -0.19436871      -0.43943208
H        4.09318633       8.74983066      10.46080912       10      -0.16439790      -0.44581711       0.21132132
H        3.32066638       1.04122047      17.90357172       11      -0.38394904       0.54537225       0.49039161
H        1.94912213       8.78500237       9.14745006       12      -0.00926772      -0.02082404       0.26170459
H        0.51296322       1.11979951       0.26164128       13       0.01709235      -0.18470274       0.17846450
H        2.97678909       6.53864800       9.74865691       14       0.07328059       0.20004736      -0.51240152
H        4.40126057      14.24357197      18.59633342       15       0.11041692       0.07874976      -0.37271231
H        2.69347043      10.38576815       7.40766355       16       0.26560408       0.26662254       0.05340863
H        3.63156629       2.71450126       2.05258144       17      -0.38895163       0.63301116      -0.28406072
H        2.20322869       4.99969684      11.46382659       18      -0.70749605      -1.16516352      -0.38824451
H        1.30296904      12.65213958      16.85615881       19      -0.67995983       0.97105801      -0.19261292
H        2.35913856       9.80153812       5.03639888       20       0.12453523      -0.03056839      -0.11699800
H        3.99910803       2.13557872       4.41449492       21      -0.05910151      -0.07649264       0.21586892
H        2.57165631       5.54318442      13.89057548       22       0.01197916       0.38798365      -0.40580508
H        0.91742324      13.21216321      14.49298804       23       0.44156733      -0.42605999      -0.85335922
H        1.96291766       9.29022550       3.06689936       24       0.30912828       0.58830130       0.39639843
H        0.48340681       1.62498848       6.35299132       25       0.15798061      -0.79253840       0.07084427
H        2.91459959       6.08810028      15.79461020       26       0.07827470       0.03425281      -0.10254755
H        4.43203094      13.76296171      12.56387649       27       0.20945331      -0.30432642       0.06319354
H        1.47648324       8.47924489       0.80943002       28       0.16181263       0.28731999      -0.65775484
H        0.93893256       0.81394882       8.64982606       29       0.39023402      -0.72695524      -0.66088676
H        3.43484050       6.87806820      18.08912851       30       0.06178721       0.57045597      -0.72975224
H        3.97253537      14.55598784      10.24598605       31      -0.14754614       0.31269988       0.57193422
H        0.35986690       6.18079065       0.55127696       32      -0.08793611      -0.23360389      -0.63933766
H        2.09694871      13.89931206       8.93879618       33      -0.25859404       0.38175589      -0.85830605
H        4.56570759       9.14306097      18.37251286       34      -0.27069849      -0.30364448      -0.74990380
H        2.80456890       1.48049758       9.95431482       35       0.21451037      -0.45580220       0.50417197
H        3.62843563       4.96697528       2.59874342       36      -0.27359167      -0.44212759      -0.18510938
H        2.73148112      12.65823052       6.84363567       37       0.29980773      -0.41821626       0.27694768
H        1.30390297      10.37113774      16.29466925       38       0.03261171      -0.09412925       0.17852613
H        2.17169077       2.74095363      12.00024467       39      -0.17576404       0.23098436       0.12218285
C        1.15388091       7.39945101       7.68472370       40      -0.06092886      -0.34653196       2.16226435
C        1.26403024      15.03926020       1.72024666       41       0.29091871       0.72986275       1.69386506
C        3.74935963       7.97242418      11.16628488       42       0.53842783       0.87695050       0.48875856
C        3.61172993       0.31025068      17.18740952       43       0.69096637      -1.01213360      -2.39194536
C        1.77724930       8.57515629       8.10207804       44       0.08692619      -0.13693659      -0.28033638
C        0.65898287       0.88582389       1.32178385       45      -0.24830633       0.07467987      -0.01456483
C        3.15725761       6.81258454      10.77382664       46      -0.99700111      -1.53466582       0.41751787
C        4.27413854      14.48412053      17.52928455       47      -0.99204171       1.14437795       2.03981638
C        2.21811376       9.46029770       7.12326533       48      -0.26642579      -0.16560577       0.94612384
C        0.21796684       1.79730739       2.29081687       49       1.26040649      -1.88227105       1.74220669
C        2.68141206       5.88855765      11.75148984       50       1.37409210       2.26511860       0.52239901
C        4.65033555      13.59860584      16.57464244       51       1.67960644      -2.08790922      -1.24442923
C        2.01356568       9.12093869       5.80900922       52       0.43297994       1.03810024      -0.82592195
C        0.46535548       1.43667326       3.67031388       53      -1.34539282       2.09012628      -2.07896614
C        2.89568063       6.23171938      13.09024840       54      -0.54532576      -1.56532955      -0.28293604
C        4.50973274      13.91958093      15.21781920       55      -0.26230997      -0.35623783       1.97207093
C        1.37376173       7.96553571       5.45770863       56      -1.06962764      -2.11894250      -1.05657780
C        1.08237771       0.27500444       4.00797464       57       0.79230225      -1.33160639       0.43091246
C        3.55996434       7.40326472      13.41407500       58      -0.47825924      -0.16512035       2.02569962
C        3.85879531      15.09825707      14.92944230       59      -0.03936115      -0.21338856      -3.19424391
C        1.11487844       7.53844466       4.02707292       60      -0.20752870       0.22518277       2.39031386
C        1.33715072      15.21164231       5.41437755       61      -0.55202127       0.99239600      -1.38630164
C        3.78970466       7.79778746      14.84322387       62       0.64251477       0.78886175      -2.37653685
C        3.58774082       0.13649233      13.49173368       63      -0.50962198       0.29433453       1.73272192
C        1.45845410       8.35468634       2.97421523       64      -0.30131894      -1.07819128      -2.49024296
C        0.94970969       0.62460516       6.49643474       65      -0.28004301       1.43141079       0.77164721
C        3.44228187       7.03457557      15.91397163       66      -0.87961411      -1.07660043       1.52390742
C        3.92314262      14.70067629      12.41232229       67       0.56898052      -0.34958676      -0.32595420
C        1.19510821       7.88346141       1.64905437       68      -0.47483125      -1.37180841       1.74859238
C        1.25587647       0.17575720       7.78136753       69      -1.59064531       2.31629753       0.27620083
C        3.68658239       7.50401007      17.19641906       70      -0.08482524      -0.58934206       0.94269830
C        3.67801532      15.15254308      11.13501549       71      -0.36569041       0.33035332      -1.36590552
C        0.59123357       6.59912165       1.50767082       72       0.55008817       1.72847128       0.47922751
C        1.84626966      14.31864387       7.92505846       73       1.32506037      -1.94930220       2.14881039
C        4.31121089       8.74183259      17.35932824       74      -0.05849505      -0.75667316       2.47913122
C        3.03210903       1.03577599      10.94711087       75      -0.25200039       0.97182715       0.52076358
C        0.22914650       5.91781215       2.66650688       76      -0.33777040      -0.87070143      -1.61081541
C        2.23108166      13.60718546       6.81340794       77      -0.23270172      -0.08465892      -0.98028052
C        4.68854764       9.40886454      16.25756587       78       0.52542293       1.69924903      -2.34660673
C        2.67229952       1.78971669      12.10043898       79       0.55435961      -1.54271197      -0.46642235
Br       2.28092484       3.83938214       5.48085761       80       0.33789167       0.11213490       0.07065625
Br       4.06548827      11.53300865       4.00059286       81      -0.37238732       0.13987775      -0.03360943
Br       2.59463771      11.50300985      13.44291641       82      -0.21388711      -0.05940165       0.04810712
Br       0.89882030       3.84571973      14.92660734       83       0.12307089      -0.00690628      -0.02589850
Br       1.07682189       3.83611166       9.12546230       84       0.12859011      -0.04837504       0.03499015
Br       1.40585193      11.51470839       0.36378638       85      -0.19359788      -0.04815963      -0.07294127
Br       3.88339354      11.49248213       9.77484255       86      -0.12463659       0.08309183       0.01336309
Br       3.54784764       3.84935247      18.53291437       87       0.12931617       0.03355257       0.11011213
N        0.92585167       7.08920156       6.43491137       88       0.36264291       0.39887226      -1.88875580
N        1.52025552      14.76219349       3.04490137       89      -0.69106650       0.40017429      -1.35076594
N        3.94270946       8.25287429      12.48480964       90       0.53513014       1.05634224      -1.54137850
N        3.41575862       0.57755043      15.84012772       91      -0.45946220       1.39576483       3.09603000
N        0.46688741       6.33684510       3.86962516       92       0.93964350       1.40038705       2.04230261
N        1.96285720      14.05820366       5.57670323       93       0.68219298      -1.35432470      -0.18047342
N        4.42268233       8.98461932      14.99782609       94       0.05217568       0.02587681       0.22336718
N        2.92364505       1.30395313      13.33808416       95       0.03013681       0.87460035      -0.17529109
96
Lattice="3.89948469 0.0 0.0 -0.00012933081384179388 15.349469289455145 0.0 1.0215849913809165 -8.21999138137994e-05 18.897507147230833" Properties=species:S:1:pos:R:3:spacegroup_kinds:I:1:forces:R:3 spacegroup="P 1" unit_cell=conventional occupancy="_JSON {\"0\": {\"Cu\": 1}, \"1\": {\"Cu\": 1}, \"2\": {\"Cu\": 1}, \"3\": {\"Cu\": 1}, \"4\": {\"Cu\": 1}, \"5\": {\"Cu\": 1}, \"6\": {\"Cu\": 1}, \"7\": {\"Cu\": 1}, \"8\": {\"H\": 1}, \"9\": {\"H\": 1}, \"10\": {\"H\": 1}, \"11\": {\"H\": 1}, \"12\": {\"H\": 1}, \"13\": {\"H\": 1}, \"14\": {\"H\": 1}, \"15\": {\"H\": 1}, \"16\": {\"H\": 1}, \"17\": {\"H\": 1}, \"18\": {\"H\": 1}, \"19\": {\"H\": 1}, \"20\": {\"H\": 1}, \"21\": {\"H\": 1}, \"22\": {\"H\": 1}, \"23\": {\"H\": 1}, \"24\": {\"H\": 1}, \"25\": {\"H\": 1}, \"26\": {\"H\": 1}, \"27\": {\"H\": 1}, \"28\": {\"H\": 1}, \"29\": {\"H\": 1}, \"30\": {\"H\": 1}, \"31\": {\"H\": 1}, \"32\": {\"H\": 1}, \"33\": {\"H\": 1}, \"34\": {\"H\": 1}, \"35\": {\"H\": 1}, \"36\": {\"H\": 1}, \"37\": {\"H\": 1}, \"38\": {\"H\": 1}, \"39\": {\"H\": 1}, \"40\": {\"C\": 1}, \"41\": {\"C\": 1}, \"42\": {\"C\": 1}, \"43\": {\"C\": 1}, \"44\": {\"C\": 1}, \"45\": {\"C\": 1}, \"46\": {\"C\": 1}, \"47\": {\"C\": 1}, \"48\": {\"C\": 1}, \"49\": {\"C\": 1}, \"50\": {\"C\": 1}, \"51\": {\"C\": 1}, \"52\": {\"C\": 1}, \"53\": {\"C\": 1}, \"54\": {\"C\": 1}, \"55\": {\"C\": 1}, \"56\": {\"C\": 1}, \"57\": {\"C\": 1}, \"58\": {\"C\": 1}, \"59\": {\"C\": 1}, \"60\": {\"C\": 1}, \"61\": {\"C\": 1}, \"62\": {\"C\": 1}, \"63\": {\"C\": 1}, \"64\": {\"C\": 1}, \"65\": {\"C\": 1}, \"66\": {\"C\": 1}, \"67\": {\"C\": 1}, \"68\": {\"C\": 1}, \"69\": {\"C\": 1}, \"70\": {\"C\": 1}, \"71\": {\"C\": 1}, \"72\": {\"C\": 1}, \"73\": {\"C\": 1}, \"74\": {\"C\": 1}, \"75\": {\"C\": 1}, \"76\": {\"C\": 1}, \"77\": {\"C\": 1}, \"78\": {\"C\": 1}, \"79\": {\"C\": 1}, \"80\": {\"Br\": 1}, \"81\": {\"Br\": 1}, \"82\": {\"Br\": 1}, \"83\": {\"Br\": 1}, \"84\": {\"Br\": 1}, \"85\": {\"Br\": 1}, \"86\": {\"Br\": 1}, \"87\": {\"Br\": 1}, \"88\": {\"N\": 1}, \"89\": {\"N\": 1}, \"90\": {\"N\": 1}, \"91\": {\"N\": 1}, \"92\": {\"N\": 1}, \"93\": {\"N\": 1}, \"94\": {\"N\": 1}, \"95\": {\"N\": 1}}" energy=-595.7048950195312 free_energy=-595.7048950195312 stress="-0.004468701779842377 0.0011997761903330684 0.0024546287022531033 0.0011997761903330684 -0.017325110733509064 -0.00441892072558403 0.0024546287022531033 -0.00441892072558403 -0.001641235314309597" pbc="T T T"
Cu       4.09400520       5.34823538       5.71883414        0      -0.11803700       0.37232098      -0.02177949
Cu       2.23842970      13.11569606       3.75034726        1       0.72330964      -0.70977652       0.18398345
Cu       0.82669765       9.95583144      13.14696017        2       0.10689481      -0.27208829       0.15828447
Cu       2.62173716       2.31845784      15.21072851        3      -0.03753823      -0.49115673      -0.38775826
Cu       3.13731904       4.00770640       7.72823578        4      -0.20136105       0.20218687      -0.23571679
Cu       3.22205363      11.70928635       1.78720507        5       0.28425369       0.14823061       0.22977087
Cu       1.81462491      11.35813722      11.21089813        6       0.14645199      -0.19292802      -0.00840624
Cu       1.67519757       3.63693007      17.13821424        7      -0.08133020      -0.10655017       0.02607716
H        0.86558136       6.65633197       8.45387915        8      -0.06953841       0.29361975      -0.36452809
H        1.63839371      14.28020807       1.02340176        9       0.11295076      -0.43956774      -0.64552975
H        4.07129725       8.75700283      10.43995197       10      -0.28589839      -0.54978597       0.24370341
H        3.29322374       1.01262797      17.89642077       11      -0.60811329       1.13839412       1.01966357
H        1.97278248       8.77432042       9.16742068       12      -0.29747766      -0.30872416      -0.32352221
H        0.51346654       1.13857772       0.24963996       13      -0.03727408       0.03068404      -0.21736760
H        2.98709285       6.54245337       9.72194553       14       0.25996178       0.24016798       0.91593754
H        4.41803434      14.21737615      18.56989218       15       0.09920158       0.39961389      -0.62357926
H        2.66545981      10.39509165       7.38291777       16       0.87640405       1.38005102       0.59837246
H        3.62950055       2.69825684       2.05353249       17      -0.12607381       0.27658728       0.00758313
H        2.19769044       4.99964979      11.48075003       18      -0.85175723      -1.45689750      -0.51888180
H        1.30956145      12.64747103      16.86674989       19      -0.85945874       0.91604424      -0.39838761
H        2.35844202       9.80471715       5.04548482       20       0.20509936       0.04256608      -0.27273872
H        4.01296390       2.15679474       4.44031827       21       0.21536757      -0.73595297      -0.27497387
H        2.55633409       5.56696811      13.89906769       22      -0.22800815      -0.14050323       0.10284932
H        0.91910291      13.19335738      14.49789125       23       0.47803378      -0.54453218      -1.17836380
H        1.97940188       9.31968387       3.09499954       24      -0.50717956      -0.70894277       0.10323425
H        0.45535931       1.59687013       6.38184192       25      -0.06219770      -0.23075247      -0.16650155
H        2.89018251       6.09650174      15.81813766       26      -0.26274675      -0.58516908      -0.20027858
H        4.41674441      13.75066326      12.55902916       27      -0.24154216       0.60292584      -0.06841803
H        1.46608512       8.48925228       0.81903666       28       0.20866062       0.12907733      -0.49828142
H        0.96867828       0.84025148       8.64310314       29       0.36050081      -0.71830052      -0.50561345
H        3.45553043       6.88723664      18.06754698       30      -0.17442718      -0.11008377       0.25771090
H        3.96657696      14.54601735      10.23062942       31      -0.15392326       0.71089864       1.06495988
H        0.37968161       6.16869719       0.54053980       32      -0.19143257      -0.33740804      -0.85960531
H        2.08844172      13.92879400       8.91918962       33      -0.12736599       0.15643692      -0.66458523
H        4.58590763       9.12455525      18.35548637       34      -0.01852151       0.13553040       0.29446080
H        2.78608073       1.47752311       9.97253969       35       0.50728363      -0.78099644       0.90463138
H        3.64192002       4.96790101       2.58501237       36      -0.47929883      -0.66649795      -0.20329385
H        2.73441871      12.64486242       6.83073975       37       0.07667097       0.03631966       0.39724848
H        1.32484747      10.35510821      16.27720576       38       0.08659339       0.31619209       0.12726317
H        2.19256495       2.75490866      12.00155198       39      -0.31947854       0.50452751       0.03879765
C        1.14352493       7.40795650       7.68961844       40      -0.48038614      -1.27376485       1.79561794
C        1.25703656      15.01543593       1.69493514       41       0.10222946       1.82783306       2.61749673
C        3.72529814       7.97472503      11.14411667       42       0.94706142       0.84652519       0.91392356
C        3.61045888       0.33355023      17.16998231       43       1.24932909      -2.31779647      -2.17306280
C        1.74950026       8.54975982       8.11238440       44       1.67361581       2.49344969       0.18011992
C        0.67513976       0.90928574       1.29371049       45       0.15022156      -1.22300363       1.58266985
C        3.18507815       6.78879527      10.79974447       46      -1.72034097      -2.04681706      -1.72851229
C        4.29985475      14.50769266      17.50277940       47      -0.97306448       0.19349906       1.70002162
C        2.22341177       9.48066868       7.15040263       48      -1.81219077      -2.86562967      -0.72984320
C        0.24076795       1.78321700       2.31303161       49       0.79305196      -1.27083182       0.77251506
C        2.68830286       5.86960448      11.77504831       50       1.53149581       2.43507051       0.06561659
C        4.63291035      13.57048753      16.54531256       51       1.62886071      -0.85200363       0.17325224
C        2.00887185       9.11240656       5.79870119       52       1.24982810       2.53046083       1.08101439
C        0.47627721       1.41624657       3.69582307       53      -2.60834146       4.83727551      -2.80508065
C        2.88795309       6.21344027      13.09947704       54       0.06416526      -0.49020830      -0.11975281
C        4.50814172      13.90849909      15.20349995       55      -0.44415355       0.27849239       1.49922395
C        1.37811751       7.98392482       5.44870986       56      -1.98625958      -3.68100262      -0.61464685
C        1.08128082       0.29236478       3.98202111       57       2.03220177      -3.67232084       2.05480599
C        3.57360225       7.39138764      13.41912394       58      -0.71508646      -0.18458268       1.27336872
C        3.88846934      15.11474873      14.90174841       59      -0.88469636      -0.29370296      -1.28961492
C        1.10351122       7.51659938       4.04051259       60      -0.05590300       0.93237257       1.42614758
C        1.35676120      15.22782271       5.39346056       61      -0.93234646       0.49498987      -0.81123406
C        3.78611742       7.79094044      14.84910798       62       0.29884079       0.26925579      -1.95651841
C        3.56165943       0.11948538      13.49081340       63       0.10562941       0.58563966       1.67842364
C        1.43076636       8.35805670       2.96312218       64       0.65813804      -0.27331665      -0.92310274
C        0.93787628       0.62271645       6.49293902       65       0.41693160       1.01155019       1.00552464
C        3.41344737       7.02204591      15.92602537       66      -0.06085792       0.08215134       1.13722920
C        3.90922427      14.72849241      12.40690525       67       1.73964596      -2.77540159      -0.29590684
C        1.21568873       7.88067613       1.66715046       68      -1.22264528      -1.78422141       0.59461010
C        1.28477286       0.20194739       7.78262364       69      -1.75301087       1.71820498      -0.60837924
C        3.69884999       7.48839981      17.20362416       70       0.25896910       0.85299587       0.20899180
C        3.70810481      15.17569674      11.13605200       71      -0.06832233      -1.04712713      -1.86085367
C        0.56593173       6.57884313       1.50157957       72       1.49466324       3.14205742       0.29010016
C        1.84993138      14.31613574       7.89822207       73       0.95296472      -0.49448019       3.84306097
C        4.31418479       8.75117861      17.37944899       74      -0.25967190      -1.30974150      -0.01825338
C        3.05973813       1.02043493      10.97670727       75      -1.29770970       2.96029949      -1.51620257
C        0.21254220       5.92658861       2.64005456       76      -0.33337340      -1.31165040       0.03878706
C        2.24396470      13.61454157       6.83747827       77      -0.20172685      -1.12711728      -3.86582947
C        4.67131509       9.42707427      16.23572442       78       0.35939044       0.73053998       0.22376114
C        2.68521991       1.81019663      12.08046124       79       1.07846570      -2.72296810       0.84427011
Br       2.30539739       3.84817104       5.48129063       80       0.21194130      -0.00887533       0.07290749
Br       4.09216992      11.52810711       4.02638138       81      -0.55203694       0.21701807      -0.12980776
Br       2.59961038      11.48188459      13.42333873       82      -0.18154508      -0.01945157       0.05596585
Br       0.87888566       3.84009323      14.91836839       83       0.11381628      -0.01585325      -0.04968701
Br       1.10423118       3.86001301       9.11554100       84       0.10282104      -0.07574275       0.07475355
Br       1.41615588      11.53577214       0.34362518       85      -0.22687283      -0.08755195      -0.02074828
Br       3.88101203      11.49626014       9.75447488       86      -0.15009774       0.09878457       0.01883915
Br       3.56810213       3.85138865      18.56226924       87      -0.00116016       0.01023045      -0.03208892
N        0.90484883       7.10478981       6.44256286       88       0.49147215       0.35739219      -2.31860733
N        1.51779081      14.74360116       3.06096844       89      -1.01612401       0.94257897      -3.21680069
N        3.93531792       8.23231640      12.45767801       90       0.65273297       1.40789926      -0.31807780
N        3.38807592       0.57946468      15.85073690       91       0.22021742       0.79770905       1.04783916
N        0.46509010       6.31913437       3.87649314       92       0.86585128       1.45929289       1.24859881
N        1.93409005      14.04529052       5.55179869       93       1.15930390      -0.98099256       1.07252395
N        4.40997929       8.97469487      15.02318568       94      -0.03005314      -0.00839248      -1.28615260
N        2.94503134       1.27883506      13.31599387       95      -1.04353642       2.75521898       0.06036371
96
Lattice="3.89948469 0.0 0.0 -0.00012933081384179388 15.349469289455145 0.0 1.0215849913809165 -8.21999138137994e-05 18.897507147230833" Properties=species:S:1:pos:R:3:spacegroup_kinds:I:1:forces:R:3 spacegroup="P 1" unit_cell=conventional occupancy="_JSON {\"0\": {\"Cu\": 1}, \"1\": {\"Cu\": 1}, \"2\": {\"Cu\": 1}, \"3\": {\"Cu\": 1}, \"4\": {\"Cu\": 1}, \"5\": {\"Cu\": 1}, \"6\": {\"Cu\": 1}, \"7\": {\"Cu\": 1}, \"8\": {\"H\": 1}, \"9\": {\"H\": 1}, \"10\": {\"H\": 1}, \"11\": {\"H\": 1}, \"12\": {\"H\": 1}, \"13\": {\"H\": 1}, \"14\": {\"H\": 1}, \"15\": {\"H\": 1}, \"16\": {\"H\": 1}, \"17\": {\"H\": 1}, \"18\": {\"H\": 1}, \"19\": {\"H\": 1}, \"20\": {\"H\": 1}, \"21\": {\"H\": 1}, \"22\": {\"H\": 1}, \"23\": {\"H\": 1}, \"24\": {\"H\": 1}, \"25\": {\"H\": 1}, \"26\": {\"H\": 1}, \"27\": {\"H\": 1}, \"28\": {\"H\": 1}, \"29\": {\"H\": 1}, \"30\": {\"H\": 1}, \"31\": {\"H\": 1}, \"32\": {\"H\": 1}, \"33\": {\"H\": 1}, \"34\": {\"H\": 1}, \"35\": {\"H\": 1}, \"36\": {\"H\": 1}, \"37\": {\"H\": 1}, \"38\": {\"H\": 1}, \"39\": {\"H\": 1}, \"40\": {\"C\": 1}, \"41\": {\"C\": 1}, \"42\": {\"C\": 1}, \"43\": {\"C\": 1}, \"44\": {\"C\": 1}, \"45\": {\"C\": 1}, \"46\": {\"C\": 1}, \"47\": {\"C\": 1}, \"48\": {\"C\": 1}, \"49\": {\"C\": 1}, \"50\": {\"C\": 1}, \"51\": {\"C\": 1}, \"52\": {\"C\": 1}, \"53\": {\"C\": 1}, \"54\": {\"C\": 1}, \"55\": {\"C\": 1}, \"56\": {\"C\": 1}, \"57\": {\"C\": 1}, \"58\": {\"C\": 1}, \"59\": {\"C\": 1}, \"60\": {\"C\": 1}, \"61\": {\"C\": 1}, \"62\": {\"C\": 1}, \"63\": {\"C\": 1}, \"64\": {\"C\": 1}, \"65\": {\"C\": 1}, \"66\": {\"C\": 1}, \"67\": {\"C\": 1}, \"68\": {\"C\": 1}, \"69\": {\"C\": 1}, \"70\": {\"C\": 1}, \"71\": {\"C\": 1}, \"72\": {\"C\": 1}, \"73\": {\"C\": 1}, \"74\": {\"C\": 1}, \"75\": {\"C\": 1}, \"76\": {\"C\": 1}, \"77\": {\"C\": 1}, \"78\": {\"C\": 1}, \"79\": {\"C\": 1}, \"80\": {\"Br\": 1}, \"81\": {\"Br\": 1}, \"82\": {\"Br\": 1}, \"83\": {\"Br\": 1}, \"84\": {\"Br\": 1}, \"85\": {\"Br\": 1}, \"86\": {\"Br\": 1}, \"87\": {\"Br\": 1}, \"88\": {\"N\": 1}, \"89\": {\"N\": 1}, \"90\": {\"N\": 1}, \"91\": {\"N\": 1}, \"92\": {\"N\": 1}, \"93\": {\"N\": 1}, \"94\": {\"N\": 1}, \"95\": {\"N\": 1}}" energy=-594.5274047851562 free_energy=-594.5274047851562 stress="-0.005448694806545973 1.0226019185211044e-05 -0.0005211742245592177 1.0226019185211044e-05 -0.019603896886110306 -0.005111691076308489 -0.0005211742245592177 -0.005111691076308489 -0.00047312607057392597" pbc="T T T"
Cu       4.07227069       5.33275256       5.70762456        0       0.02722038       0.59722793       0.02695657
Cu       2.22702836      13.08834168       3.77057288        1       0.67546105      -0.55290031       0.05208847
Cu       0.84539518       9.97343164      13.12367723        2      -0.03049798      -0.45928428       0.19697975
Cu       2.61818861       2.31805784      15.18367154        3      -0.04683538      -0.50071323      -0.28710723
Cu       3.13873942       4.03303007       7.72836713        4      -0.16036670       0.16613618      -0.22891642
Cu       3.25184420      11.73391739       1.80522267        5       0.21963958       0.11884020       0.14104910