69
Lattice="8.41229302 0.0 0.0 -2.162852277190101 8.260793325751477 0.0 0.28503131626832706 -1.0346683699264312 11.30736755075619" Properties=species:S:1:pos:R:3:spacegroup_kinds:I:1:forces:R:3 spacegroup="P 1" unit_cell=conventional occupancy="_JSON {\"0\": {\"Cd\": 1}, \"1\": {\"Cd\": 1}, \"2\": {\"Cd\": 1}, \"3\": {\"H\": 1}, \"4\": {\"H\": 1}, \"5\": {\"H\": 1}, \"6\": {\"H\": 1}, \"7\": {\"H\": 1}, \"8\": {\"H\": 1}, \"9\": {\"H\": 1}, \"10\": {\"H\": 1}, \"11\": {\"H\": 1}, \"12\": {\"H\": 1}, \"13\": {\"H\": 1}, \"14\": {\"H\": 1}, \"15\": {\"H\": 1}, \"16\": {\"H\": 1}, \"17\": {\"H\": 1}, \"18\": {\"H\": 1}, \"19\": {\"H\": 1}, \"20\": {\"H\": 1}, \"21\": {\"H\": 1}, \"22\": {\"H\": 1}, \"23\": {\"H\": 1}, \"24\": {\"H\": 1}, \"25\": {\"C\": 1}, \"26\": {\"C\": 1}, \"27\": {\"C\": 1}, \"28\": {\"C\": 1}, \"29\": {\"C\": 1}, \"30\": {\"C\": 1}, \"31\": {\"C\": 1}, \"32\": {\"C\": 1}, \"33\": {\"C\": 1}, \"34\": {\"C\": 1}, \"35\": {\"C\": 1}, \"36\": {\"C\": 1}, \"37\": {\"C\": 1}, \"38\": {\"C\": 1}, \"39\": {\"C\": 1}, \"40\": {\"C\": 1}, \"41\": {\"C\": 1}, \"42\": {\"C\": 1}, \"43\": {\"C\": 1}, \"44\": {\"C\": 1}, \"45\": {\"S\": 1}, \"46\": {\"S\": 1}, \"47\": {\"N\": 1}, \"48\": {\"N\": 1}, \"49\": {\"O\": 1}, \"50\": {\"O\": 1}, \"51\": {\"O\": 1}, \"52\": {\"O\": 1}, \"53\": {\"O\": 1}, \"54\": {\"O\": 1}, \"55\": {\"O\": 1}, \"56\": {\"O\": 1}, \"57\": {\"O\": 1}, \"58\": {\"O\": 1}, \"59\": {\"O\": 1}, \"60\": {\"O\": 1}, \"61\": {\"O\": 1}, \"62\": {\"O\": 1}, \"63\": {\"O\": 1}, \"64\": {\"O\": 1}, \"65\": {\"O\": 1}, \"66\": {\"O\": 1}, \"67\": {\"O\": 1}, \"68\": {\"O\": 1}}" energy=-435.7496032714844 free_energy=-435.7496032714844 stress="-0.008974057622253895 -0.0015963715268298984 -0.009853342548012733 -0.0015963715268298984 -0.012587794102728367 -0.007182371336966753 -0.009853342548012733 -0.007182371336966753 -0.005185236688703299" pbc="T T T"
Cd      -0.07728726       3.29541493       3.44757280        0      -0.07166781       0.49225181      -0.64174372
Cd       6.62538044       3.93587529       7.85399656        1      -0.14640875      -0.45620877       0.96359491
Cd       2.32827362       7.22609975      11.30726812        2      -0.04136175      -0.16951460      -0.08323970
H        3.13735163       7.29148540       3.31395144        3      -0.03129245       0.13244046      -0.20566896
H        3.37276787      -0.08796496       8.02585299        4      -0.03973249       0.09302546      -0.13911955
H        2.70170230       5.01788527       6.93388960        5      -0.06242366      -0.47726959       0.26464188
H        3.80574392       2.22906661       4.42737092        6      -0.09781315      -0.09700643       0.00159123
H        7.50023358       0.12319825       6.84887861        7       0.08664454       0.17151025       0.04344624
H       -0.98980194       7.10264699       4.45983315        8       0.73273671       0.59319311       0.59079081
H        6.64526675       5.50938726       1.89877148        9      -0.30790541       0.74865890       0.85306579
H       -0.14741605       1.69167716       9.38663181       10      -0.08143580       0.42839837       1.12480390
H        0.22226294       2.17010119       0.49038659       11      -0.00221299      -0.08810569       0.05411478
H        6.26856257       5.06278316      10.83473819       12       0.23233737      -0.37880310      -0.18128528
H        6.67709244       5.02361308       4.91822620       13       0.04884654       0.11647005       0.21509919
H       -0.15351083       2.21629675       6.43284730       14      -0.11818326      -0.36150238      -0.62403905
H        5.80697649       3.75106880       4.65237247       15       0.80607796       1.03230500      -0.57802022
H        0.73915763       3.47639439       6.68297396       16      -0.86553800      -0.93851089       0.46370959
H        3.79014938       1.65984709      10.97414376       17       1.74971342      -1.00176632      -0.43605587
H        2.71185737       5.61085842       0.37929695       18       2.47784281      -1.02279115      -0.77881289
H        4.71896256       1.38713377       9.70788168       19       0.16485828      -0.09784617       0.25405088
H        1.82899714       5.83336995       1.64706974       20      -0.03379770       0.01781818      -0.72491831
H        6.94801877       0.16806495      -0.02607443       21      -0.41155165      -0.15020072       0.72411692
H       -0.44914744       7.04574649      11.27905285       22       0.79476714       0.60262734      -0.59572005
H        6.61060319       0.25421274       1.58150742       23       0.34341347       0.51098943       0.54620421
H       -0.08955549       6.96790225       9.70839100       24       0.23099175       0.33391404       0.28193623
C        6.54515688      -0.32105219       4.93540057       25      -0.31825793      -0.29035887       1.16534996
C        0.02887168       7.52893006       6.36432715       26      -0.38091359       0.01307714      -0.61284101
C        3.43892401       7.11406362       4.34098016       27      -0.48451328      -1.21851945      -0.37574562
C        3.07176664       0.11095282       6.99204205       28       1.73041093       1.57954359       0.35602206
C        2.84324199       5.99369577       5.00552036       29       1.69242644       1.48089552       0.73687911
C        3.69434195       1.20701883       6.27000842       30      -1.07428479      -1.78337669       2.41281700
C        3.18891246       5.78338080       6.36062033       31      -0.05798229       0.88847601      -0.78104496
C        3.33803327       1.40315849       4.97313461       32       1.26341784       1.81945527      -0.96742034
C        4.05731561       6.69341974       6.99739396       33      -0.31042624      -0.72416174      -0.41888684
C        2.48346968       0.57153102       4.32489765       34      -1.43048716      -1.60748494      -0.24851647
C        6.81685640      -0.52450308       6.31159548       35       0.28062165       0.31379065      -0.61855352
C       -0.27605123       7.76950486       5.02391647       36      -0.90831709      -0.66599548      -1.54840374
C        7.12802155       0.86432935       4.21074492       37      -1.18466115      -2.57499790       1.13930082
C       -0.56024258       6.37048005       7.06057230       38      -0.43673667      -0.72234821       2.23880863
C        1.85385035       5.13487315       4.35070826       39      -0.66981024       0.25550884       0.10518190
C        4.68642583       2.07799399       6.92738030       40       1.39215255       0.81400955       0.87922835
C        6.94352130       4.92659171       1.07316514       41       0.40512934      -1.37190151      -2.01954412
C       -0.40930734       2.30371623      10.29172760       42      -0.37853289       0.02347244      -2.90515661
C       -0.38189891       3.04111729       0.25000031       43       0.85228318      -0.74832416       2.04242229
C        6.88275646       4.16953993      11.03460584       44      -0.35777766       1.19927990       1.48145747
S        4.33815112       6.45444745       8.72273368       45      -1.60530829      -0.40092522      -0.25240499
S        2.21297593       0.79932820       2.57262658       46       0.20996632      -0.67092282       0.23306960
N       -0.74198569       3.82120623       1.29373428       47      -0.11183308       0.05489311       0.22616804
N        7.28584930       3.41145884      10.03463182       48      -0.27237934       0.16295935      -0.63293844
O        6.82289752       1.06194392       3.04658257       49      -0.72308916       0.65802264      -2.62923670
O       -0.33232272       6.13011569       8.30900069       50       0.22476535       0.49924496      -1.49455154
O        7.89643873       1.58581426       4.87184125       51       1.62680757       1.58640718       1.71459627
O       -1.37702208       5.59160677       6.43588792       52       0.40719837       0.64312351      -0.88855982
O        1.45276739       5.36692846       3.16557562       53       0.12620088      -0.33777994       0.33593291
O        5.08895449       1.89285689       8.15021649       54      -0.70899469       0.18712646      -1.78758180
O        1.33239387       4.22028938       5.08965422       55      -0.10410594      -0.26413760      -0.33414882
O        5.20616922       3.04398567       6.21169658       56      -0.52441376      -0.96708190       0.61786127
O        4.81292386       5.07978855       8.95900107       57       0.56193149      -1.47470069      -0.03314381
O        1.69356846       2.16876421       2.38255303       58      -0.21145034       1.32533717      -0.09485869
O        2.93168091       6.55914726       9.27369519       59      -0.50804931       0.03119718      -0.04723454
O        3.60426131       0.66303586       2.02505148       60       0.50945401       0.11412555       0.09098753
O        7.36340749      -0.77222015       9.22030621       61       1.45245576       1.81684661       0.81530386
O       -0.86984605       8.03326995       2.03949541       62      -0.35728025      -0.68332636      -0.10401937
O        6.38919688       4.44255554       4.16667094       63      -0.85735083      -1.19037080       0.23675928
O        0.12649469       2.81134527       7.15678634       64       1.09449887       1.20697880       0.06492795
O        4.66794002       1.20724373      10.69961040       65      -1.83395779       1.25896990       0.19362539
O        1.89495511       5.96374039       0.63452524       66      -2.46663165       1.01756775       1.39755964
O        4.23682440       8.07578133       0.73157210       67       0.14760056      -0.34141177      -1.45287704
O        2.29934820      -0.79691956      10.57151104       68      -1.05668020      -0.94625938       0.37086523
69
Lattice="8.41229302 0.0 0.0 -2.162852277190101 8.260793325751477 0.0 0.28503131626832706 -1.0346683699264312 11.30736755075619" Properties=species:S:1:pos:R:3:spacegroup_kinds:I:1:forces:R:3 spacegroup="P 1" unit_cell=conventional occupancy="_JSON {\"0\": {\"Cd\": 1}, \"1\": {\"Cd\": 1}, \"2\": {\"Cd\": 1}, \"3\": {\"H\": 1}, \"4\": {\"H\": 1}, \"5\": {\"H\": 1}, \"6\": {\"H\": 1}, \"7\": {\"H\": 1}, \"8\": {\"H\": 1}, \"9\": {\"H\": 1}, \"10\": {\"H\": 1}, \"11\": {\"H\": 1}, \"12\": {\"H\": 1}, \"13\": {\"H\": 1}, \"14\": {\"H\": 1}, \"15\": {\"H\": 1}, \"16\": {\"H\": 1}, \"17\": {\"H\": 1}, \"18\": {\"H\": 1}, \"19\": {\"H\": 1}, \"20\": {\"H\": 1}, \"21\": {\"H\": 1}, \"22\": {\"H\": 1}, \"23\": {\"H\": 1}, \"24\": {\"H\": 1}, \"25\": {\"C\": 1}, \"26\": {\"C\": 1}, \"27\": {\"C\": 1}, \"28\": {\"C\": 1}, \"29\": {\"C\": 1}, \"30\": {\"C\": 1}, \"31\": {\"C\": 1}, \"32\": {\"C\": 1}, \"33\": {\"C\": 1}, \"34\": {\"C\": 1}, \"35\": {\"C\": 1}, \"36\": {\"C\": 1}, \"37\": {\"C\": 1}, \"38\": {\"C\": 1}, \"39\": {\"C\": 1}, \"40\": {\"C\": 1}, \"41\": {\"C\": 1}, \"42\": {\"C\": 1}, \"43\": {\"C\": 1}, \"44\": {\"C\": 1}, \"45\": {\"S\": 1}, \"46\": {\"S\": 1}, \"47\": {\"N\": 1}, \"48\": {\"N\": 1}, \"49\": {\"O\": 1}, \"50\": {\"O\": 1}, \"51\": {\"O\": 1}, \"52\": {\"O\": 1}, \"53\": {\"O\": 1}, \"54\": {\"O\": 1}, \"55\": {\"O\": 1}, \"56\": {\"O\": 1}, \"57\": {\"O\": 1}, \"58\": {\"O\": 1}, \"59\": {\"O\": 1}, \"60\": {\"O\": 1}, \"61\": {\"O\": 1}, \"62\": {\"O\": 1}, \"63\": {\"O\": 1}, \"64\": {\"O\": 1}, \"65\": {\"O\": 1}, \"66\": {\"O\": 1}, \"67\": {\"O\": 1}, \"68\": {\"O\": 1}}" energy=-434.6276550292969 free_energy=-434.6276550292969 stress="-0.015618391335010529 -0.0041642868891358376 -0.011589199304580688 -0.0041642868891358376 -0.01625835709273815 -0.011343964375555515 -0.011589199304580688 -0.011343964375555515 -0.013338004238903522" pbc="T T T"
Cd      -0.05660596       3.27577925       3.45363591        0      -0.13641544       0.70703667      -0.75851679
Cd       6.65016888       3.92843848       7.84616311        1      -0.21913837      -0.34208092       1.12628341
Cd       2.32678783       7.19887115      11.29082837        2      -0.04692222      -0.01850490       0.07299028
H        3.11913813       7.30483206       3.28787936        3       0.51103961      -0.19188602       1.15786457
H        3.38021799      -0.11318568       8.01144211        4      -0.14868879       0.15645784      -0.24429855
H        2.71913356       5.00577556       6.91429506        5      -0.37872094      -0.73228043       0.61562395
H        3.79866455       2.22836724       4.41204173        6      -0.19544762      -0.28398469       0.22263385
H        7.48637846       0.10823708       6.83448222        7      -0.14817007      -0.00165571      -0.25999171
H       -0.97856614       7.07404640       4.46728551        8       0.99676383       0.91571355       0.86069745
H        6.63503064       5.49948920       1.88749440        9      -0.23815817       0.62949550       0.51182693
H       -0.14223392       1.66884782       9.37699900       10      -0.09802882       0.64273059       1.54951978
H        0.22228723       2.15731711       0.49785580       11      -0.06008893       0.02972032       0.10676311
H        6.29145054       5.08570592      10.85777661       12       0.54528487      -1.04354465      -0.39703813
H        6.66051832       5.03812241       4.89971502       13       0.10176511       0.21319291      -0.07974471
H       -0.17146069       2.18920850       6.46036557       14       0.26312584       0.44305134       0.13287751
H        5.83438290       3.77764714       4.67342035       15       0.45286766       0.79499137      -0.78289199
H        0.72977384       3.46050734       6.70362486       16      -0.21913977      -0.22038427      -0.09537960
H        3.78950759       1.68707229      11.00180426       17       1.38084245      -0.86431897      -0.47249800
H        2.68686750       5.60389470       0.35276644       18       3.02257490      -1.28306651      -0.78075868
H        4.73126831       1.41436733       9.72415420       19      -0.01273407      -0.08994320       0.51223463
H        1.80233454       5.85883871       1.65924356       20       0.26275593      -0.15736361      -1.12187409
H        6.94276634       0.15709999      -0.03305004       21      -0.62831753      -0.24314249       1.11699963
H       -0.46319056       7.05581533      11.30896839       22       1.70283556       1.12141442      -1.61323905
H        6.60050196       0.26203424       1.59707401       23       0.45039093       0.67160028       0.68279469
H       -0.11548275       6.97828756       9.72031462       24       0.18118212       0.02367474      -0.35326731
C        6.53325150      -0.32459279       4.95412605       25      -0.37984973       0.24180543      -0.63597572
C        0.04677723       7.55380432       6.34359404       26      -0.96840298      -1.65859497       0.83410412
C        3.46183739       7.10243960       4.35140393       27      -1.69095445      -1.06989908      -2.09849262
C        3.07265425       0.11542277       6.98047590       28       2.60243273       2.01374626       1.21607971
C        2.84395716       5.99958131       5.01880074       29       1.64655960       1.37338030       0.95508617
C        3.71287749       1.20936407       6.28397808       30      -1.53154337      -1.56487846       1.76504600
C        3.16342588       5.80632865       6.38031795       31       0.77837467       1.17535830      -0.86468804
C        3.33415083       1.40384110       4.98252585       32       1.47896218       2.14468670      -0.86466163
C        4.07331665       6.70240873       7.02543360       33      -1.53642201      -1.58471060      -1.80654597
C        2.45975081       0.58486569       4.35069902       34      -1.14849544      -1.45327163      -0.97726029
C        6.79154065      -0.54205168       6.28200307       35       1.63768911       1.12880194       1.78093350
C       -0.26703033       7.76664316       5.04464733       36      -1.64120448      -0.54590499      -3.46593237
C        7.11866207       0.88409580       4.19812413       37      -2.35094786      -5.01817417       2.05601287
C       -0.55725206       6.36680337       7.03659946       38       1.24212527       1.01958084       4.62519598
C        1.86068578       5.13980898       4.37106956       39      -1.09114170       0.17598274      -0.86731732
C        4.67739161       2.10111424       6.94713352       40       1.67081857       0.77127641      -0.02090970
C        6.93732086       4.92909543       1.04452733       41       1.01977324      -2.23266602      -1.08124733
C       -0.38909860       2.29105418      10.29922786       42      -0.87959671       0.27479765      -3.06956792
C       -0.37965137       3.04189654       0.27895248       43       1.36047244      -1.87544739      -0.07390487
C        6.89924167       4.14514827      11.00794802       44      -1.59050930       3.35649347       2.96407604
S        4.31112729       6.42811340       8.70188380       45       0.77379566       1.25588441       0.81510162
S        2.20420920       0.81815135       2.55922187       46       0.97797549      -0.78045571       1.26506090
N       -0.74384768       3.79597193       1.28172540       47      -1.04878926       1.84601450       1.65189338
N        7.26847576       3.39806948      10.03600026       48       1.00170040      -1.59025550      -1.99916029
O        6.83439960       1.03347649       3.04683929       49      -1.18038154       1.06121802      -4.42903519
O       -0.31567675       6.15890223       8.32747494       50      -0.01839873       0.38307250      -2.88679934
O        7.86813896       1.55875875       4.86295729       51       3.32979536       3.45990133       3.16150832
O       -1.36851654       5.61999928       6.45968167       52      -0.85632300      -0.64843351      -2.11293483
O        1.47246757       5.38931269       3.16640728       53       0.22004864      -0.59905219       1.16899800
O        5.09955466       1.91736770       8.13831825       54      -0.64481926      -0.12050092      -0.55745989
O        1.32348394       4.20654550       5.08570790       55       0.15553673       0.12581509      -0.45737052
O        5.21440968       3.06278259       6.23044279       56      -0.68248868      -0.81009626       0.32139733
O        4.84132350       5.09119264       8.97198016       57       0.54132068      -1.78353131      -0.04647620
O        1.69078079       2.17649657       2.41108017       58      -0.30334672       1.85878885      -0.26721066
O        2.95428319       6.57863426       9.25148094       59      -1.77813435      -0.07647285       0.38766354
O        3.59348599       0.66087870       2.02426410       60       0.67762709       0.17112529      -0.03663671
O        7.34629994      -0.75927196       9.24176938       61       0.62248749       0.70758021       0.21183030
O       -0.85688277       8.05507582       2.05534400       62      -1.05609787      -1.36437988      -0.52349663
O        6.36390168       4.47093040       4.13705675       63      -0.58380228      -1.10313535       0.84359419
O        0.11602999       2.83850020       7.17071591       64       0.14472863      -0.43579018      -0.29589558
O        4.64410297       1.22406281      10.71635584       65      -1.26095963       0.99594104      -0.06385189
O        1.88156791       5.94410190       0.62908471       66      -3.23467588       1.42371440       1.82314157
O        4.24190847       8.07470134       0.75493998       67       0.14397544      -0.44594687      -2.17752266
O        2.32386956      -0.80537512      10.55806229       68      -1.91037202      -1.08029139       2.12401676
69
Lattice="8.41229302 0.0 0.0 -2.162852277190101 8.260793325751477 0.0 0.28503131626832706 -1.0346683699264312 11.30736755075619" Properties=species:S:1:pos:R:3:spacegroup_kinds:I:1:forces:R:3 spacegroup="P 1" unit_cell=conventional occupancy="_JSON {\"0\": {\"Cd\": 1}, \"1\": {\"Cd\": 1}, \"2\": {\"Cd\": 1}, \"3\": {\"H\": 1}, \"4\": {\"H\": 1}, \"5\": {\"H\": 1}, \"6\": {\"H\": 1}, \"7\": {\"H\": 1}, \"8\": {\"H\": 1}, \"9\": {\"H\": 1}, \"10\": {\"H\": 1}, \"11\": {\"H\": 1}, \"12\": {\"H\": 1}, \"13\": {\"H\": 1}, \"14\": {\"H\": 1}, \"15\": {\"H\": 1}, \"16\": {\"H\": 1}, \"17\": {\"H\": 1}, \"18\": {\"H\": 1}, \"19\": {\"H\": 1}, \"20\": {\"H\": 1}, \"21\": {\"H\": 1}, \"22\": {\"H\": 1}, \"23\": {\"H\": 1}, \"24\": {\"H\": 1}, \"25\": {\"C\": 1}, \"26\": {\"C\": 1}, \"27\": {\"C\": 1}, \"28\": {\"C\": 1}, \"29\": {\"C\": 1}, \"30\": {\"C\": 1}, \"31\": {\"C\": 1}, \"32\": {\"C\": 1}, \"33\": {\"C\": 1}, \"34\": {\"C\": 1}, \"35\": {\"C\": 1}, \"36\": {\"C\": 1}, \"37\": {\"C\": 1}, \"38\": {\"C\": 1}, \"39\": {\"C\": 1}, \"40\": {\"C\": 1}, \"41\": {\"C\": 1}, \"42\": {\"C\": 1}, \"43\": {\"C\": 1}, \"44\": {\"C\": 1}, \"45\": {\"S\": 1}, \"46\": {\"S\": 1}, \"47\": {\"N\": 1}, \"48\": {\"N\": 1}, \"49\": {\"O\": 1}, \"50\": {\"O\": 1}, \"51\": {\"O\": 1}, \"52\": {\"O\": 1}, \"53\": {\"O\": 1}, \"54\": {\"O\": 1}, \"55\": {\"O\": 1}, \"56\": {\"O\": 1}, \"57\": {\"O\": 1}, \"58\": {\"O\": 1}, \"59\": {\"O\": 1}, \"60\": {\"O\": 1}, \"61\": {\"O\": 1}, \"62\": {\"O\": 1}, \"63\": {\"O\": 1}, \"64\": {\"O\": 1}, \"65\": {\"O\": 1}, \"66\": {\"O\": 1}, \"67\": {\"O\": 1}, \"68\": {\"O\": 1}}" energy=-434.06072998046875 free_energy=-434.06072998046875 stress="-0.014486703090369701 -0.002184996148571372 -0.011345342732965946 -0.002184996148571372 -0.01243011374026537 -0.011762714944779873 -0.011345342732965946 -0.011762714944779873 -0.014193391427397728" pbc="T T T"
Cd      -0.08340575       3.30063117       3.44104523        0      -0.03824175       0.60300088      -0.69076818
Cd       6.65996069       3.90226799       7.85856789        1      -0.44257033       0.03138292       0.89557350
Cd       2.31762593       7.20556158      11.27298152        2       0.02178652      -0.14900103       0.23200434
H        3.09680686       7.31756761       3.27954858        3       0.74877954      -0.22560591       1.11719561
H        3.38723270      -0.08570899       8.00329827        4       0.02326293      -0.01127796       0.64526379
H        2.72324188       5.00127544       6.88741100        5      -0.45504296      -0.75996190       0.66605783
H        3.81396101       2.23666610       4.41188468        6      -0.23715797      -0.45455629       0.21423745
H        7.47813244       0.11304989       6.85211847        7      -0.22493258       0.06113257      -0.37526831
H       -0.98983607       7.08809558       4.46180799        8       0.94307053       0.93248451       0.97289801
H        6.65109014       5.51956009       1.87265581        9      -0.03768088       0.11992469      -0.21873714
H       -0.16332314       1.65201415       9.39973211       10       0.14050543       0.07126488       0.46227431
H        0.24777857       2.14434715       0.47626505       11      -0.48855639       0.63298178       0.16127199
H        6.31238720       5.09894031      10.88346373       12       0.54502547      -1.27903891      -0.60146171
H        6.64106675       5.01511915       4.92047146       13       0.37323725       0.55706877       0.01106906
H       -0.16566919       2.20097479       6.45238662       14       0.34417784       0.84930182       0.74519730
H        5.85964778       3.75400863       4.68621390       15       0.59780526       0.98413527      -1.10471666
H        0.70715961       3.48567468       6.71329268       16      -0.24691275      -0.24363193       0.08387378
H        3.78333823       1.71232121      11.00673041       17       2.33741975      -1.49559748      -0.75325590
H        2.66495523       5.58026316       0.32931933       18       1.83688331      -0.84311128      -0.35264763
H        4.72281765       1.41784319       9.74743669       19       0.16773036       0.10416231      -0.82568920
H        1.77835949       5.84215807       1.68166698       20       0.38765690      -0.11052448      -1.50450790
H        6.95551170       0.15403548      -0.05584503       21      -1.07014370      -0.55051601       1.50904393
H       -0.47808221       7.03938164      11.33238928       22       2.25736523       1.54058361      -2.08856964
H        6.61572375       0.25312116       1.58453821       23       0.20878080       0.28675169       0.20683211
H       -0.11804993       6.99050154       9.70280792       24       0.47512001       0.46530011       0.44159877
C        6.54050420      -0.34356246       4.97868034       25      -0.61283213       1.17247367      -3.15347052
C        0.07552267       7.52878008       6.35341837       26      -1.16759372      -0.52657509       0.31189540
C        3.47530059       7.09515408       4.32629334       27      -1.63021135      -1.10218525      -1.17669058
C        3.05476775       0.12918623       7.00600508       28       3.07333231       2.40580511      -0.59255403
C        2.85838225       5.99625337       5.01671012       29       1.09266579       1.47614360      -0.73570544
C        3.74214954       1.21356421       6.26517917       30      -2.47433472      -2.50240612       2.63032246
C        3.13870243       5.82084484       6.36295279       31       1.50878596       1.10089803       0.02541067
C        3.34713060       1.40036811       4.97458108       32       2.18025112       2.80695820      -0.77478266
C        4.06259939       6.70697243       7.00678226       33      -1.54192758      -1.53381038      -0.89653146
C        2.47854804       0.59638305       4.35186511       34      -2.33462906      -2.46985626      -0.99301285
C        6.77140940      -0.51251332       6.28278034       35       1.87462783       0.21844473       3.39145708
C       -0.29371570       7.77972229       5.05935114       36      -0.62818360      -0.21652947      -3.38818502
C        7.13509641       0.87522586       4.21242022       37      -3.72548962      -5.33276320      -1.07025242
C       -0.53088190       6.37799486       7.06455001       38       0.37936711       0.50733471       2.56742907
C        1.87024613       5.12335761       4.35122628       39      -0.93896085       0.79001689      -0.43305957
C        4.68081344       2.07682295       6.95502520       40       1.90306306       1.78623700      -0.55038828
C        6.94856001       4.91133490       1.02138330       41       0.14900275      -1.17137432       0.41481021
C       -0.39663878       2.26272450      10.27667758       42      -1.09183776       1.53654003      -0.68408853
C       -0.37726379       3.04711757       0.27579006       43       1.53597808      -2.74314618      -0.56472504
C        6.89281658       4.12406860      10.99199862       44      -1.90410280       4.92223835       4.63185406
S        4.30523507       6.41724858       8.72695612       45       2.50100541       1.53406250      -0.75616670
S        2.22545160       0.82795768       2.54643991       46      -0.09983826      -1.20415616       1.26687026
N       -0.77014587       3.78701437       1.29050087       47      -0.36200470       1.31436026       0.84186232
N        7.26987901       3.40399312      10.05209581       48       1.51475680      -3.33818674      -4.43281269
O        6.85736911       1.04539458       3.02812910       49      -0.85208863       0.32378608      -2.26718807
O       -0.30036480       6.18232346       8.31541229       50       0.19917578       0.04828288      -1.23702240
O        7.86072239       1.58032241       4.83448487       51       4.21724510       4.19233084       4.48291016
O       -1.34202712       5.64588873       6.44259098       52      -0.64293826      -0.76435745      -1.31124413
O        1.44787996       5.36605254       3.15458044       53       0.43454519      -0.57771140       1.15286517
O        5.08458883       1.91112434       8.14076158       54      -0.47767043      -0.41936493       0.04247424
O        1.33562711       4.23080510       5.09734967       55      -0.11838761      -0.42892599      -0.42798349
O        5.21476110       3.07181871       6.25772791       56      -0.65102768      -0.96612555       0.18521374
O        4.86005873       5.09027662       8.98633474       57       0.62752521      -1.86196065      -0.03789289
O        1.67954400       2.18381854       2.40150509       58      -0.12246736       1.40845084      -0.27137196
O        2.98004104       6.55537421       9.23158576       59      -3.41917062       0.17045388       1.21570981
O        3.60953556       0.64386479       2.04702664       60       0.96066666       0.24498673      -0.28805670
O        7.37075041      -0.75545916       9.22686242       61       0.26739436       0.36203271       0.14573285
O       -0.84057379       8.03182643       2.03201275       62      -0.43316329      -0.55313212      -0.19229592
O        6.38973012       4.46210969       4.13883055       63      -1.07006609      -1.57402611       1.15336633
O        0.10514654       2.85735672       7.19446264       64       0.26250249      -0.92500687      -1.22242868
O        4.65332150       1.20888846      10.70054066       65      -2.40008879       1.45785034       1.63336790
O        1.86275529       5.95261678       0.63630996       66      -2.17568159       0.99353933       1.74431503
O        4.22748724       8.05625805       0.73324787       67       0.81735122       0.27245599      -1.99633193
O        2.33328492      -0.78329048      10.56600513       68      -2.79191113      -1.95073164       1.76760817
69