76
Lattice="6.69641689 0.0 0.0 -3.7637290939345714e-05 12.222046719942048 0.0 -4.332273305622245e-06 -1.8096813096978593e-05 17.249546639989962" Properties=species:S:1:pos:R:3:spacegroup_kinds:I:1:forces:R:3 spacegroup="P 1" unit_cell=conventional occupancy="_JSON {\"0\": {\"Al\": 1}, \"1\": {\"Al\": 1}, \"2\": {\"Al\": 1}, \"3\": {\"Al\": 1}, \"4\": {\"H\": 1}, \"5\": {\"H\": 1}, \"6\": {\"H\": 1}, \"7\": {\"H\": 1}, \"8\": {\"H\": 1}, \"9\": {\"H\": 1}, \"10\": {\"H\": 1}, \"11\": {\"H\": 1}, \"12\": {\"H\": 1}, \"13\": {\"H\": 1}, \"14\": {\"H\": 1}, \"15\": {\"H\": 1}, \"16\": {\"H\": 1}, \"17\": {\"H\": 1}, \"18\": {\"H\": 1}, \"19\": {\"H\": 1}, \"20\": {\"H\": 1}, \"21\": {\"H\": 1}, \"22\": {\"H\": 1}, \"23\": {\"H\": 1}, \"24\": {\"C\": 1}, \"25\": {\"C\": 1}, \"26\": {\"C\": 1}, \"27\": {\"C\": 1}, \"28\": {\"C\": 1}, \"29\": {\"C\": 1}, \"30\": {\"C\": 1}, \"31\": {\"C\": 1}, \"32\": {\"C\": 1}, \"33\": {\"C\": 1}, \"34\": {\"C\": 1}, \"35\": {\"C\": 1}, \"36\": {\"C\": 1}, \"37\": {\"C\": 1}, \"38\": {\"C\": 1}, \"39\": {\"C\": 1}, \"40\": {\"C\": 1}, \"41\": {\"C\": 1}, \"42\": {\"C\": 1}, \"43\": {\"C\": 1}, \"44\": {\"C\": 1}, \"45\": {\"C\": 1}, \"46\": {\"C\": 1}, \"47\": {\"C\": 1}, \"48\": {\"C\": 1}, \"49\": {\"C\": 1}, \"50\": {\"C\": 1}, \"51\": {\"C\": 1}, \"52\": {\"C\": 1}, \"53\": {\"C\": 1}, \"54\": {\"C\": 1}, \"55\": {\"C\": 1}, \"56\": {\"O\": 1}, \"57\": {\"O\": 1}, \"58\": {\"O\": 1}, \"59\": {\"O\": 1}, \"60\": {\"O\": 1}, \"61\": {\"O\": 1}, \"62\": {\"O\": 1}, \"63\": {\"O\": 1}, \"64\": {\"O\": 1}, \"65\": {\"O\": 1}, \"66\": {\"O\": 1}, \"67\": {\"O\": 1}, \"68\": {\"O\": 1}, \"69\": {\"O\": 1}, \"70\": {\"O\": 1}, \"71\": {\"O\": 1}, \"72\": {\"O\": 1}, \"73\": {\"O\": 1}, \"74\": {\"O\": 1}, \"75\": {\"O\": 1}}" energy=-541.3292236328125 free_energy=-541.3292236328125 stress="0.0014117805985733867 0.0005953409126959741 -0.0005789429997093976 0.0005953409126959741 0.0003153545840177685 -0.00048346465337090194 -0.0005789429997093976 -0.00048346465337090194 -0.0006585891242139041" pbc="T T T"
Al      -0.00013649       0.00029112       0.00026849        0       0.02567805       0.04107853       0.04359777
Al       0.00022122       6.11143018       8.62526793        1       0.06964000      -0.06083278      -0.04013689
Al       3.34830263       0.00016553       0.00007638        2       0.08271651      -0.03087210       0.13675891
Al       3.34789417       6.11131205       8.62448600        3      -0.00659186       0.12544036       0.11699751
H        0.47232201       8.28388281       5.20915489        4       0.03010944       0.00333051      -0.03401813
H        0.45944455       9.61026813       3.06611101        5       0.46137679       0.16632877      -0.24505949
H        6.22319314       2.16946318       3.42916092        6       0.22166994       0.02880176       0.04973129
H        6.23857249       3.50761312       5.56710709        7      -0.22600204       0.00407393       0.00978683
H        3.81976220       3.93896558      12.04807886        8       0.10032679       0.06780893      -0.03975055
H        3.82406477       2.62629307      14.20079316        9       0.01005687      -0.00395181      -0.02250345
H        2.87837549      10.05818171      13.83329579       10       0.08673376      -0.04010448      -0.08229701
H        2.87362413       8.73754255      11.68657316       11       0.07167868      -0.00678900       0.06406577
H        6.22209670       3.95470939      12.04806622       12       0.29636922      -0.09512915       0.15112437
H        6.23221580       2.62465124      14.18913014       13      -0.04250406      -0.04723434       0.06240048
H        0.46248738      10.06365850      13.82957867       14       0.39450333       0.11161193       0.18260114
H        0.47770709       8.73421350      11.69120475       15       0.01058060       0.00348935       0.00763429
H        2.87800434       8.28804346       5.20154946       16      -0.03826405      -0.03814697       0.05069000
H        2.89124188       9.61731133       3.07345213       17      -0.21441336       0.05694923      -0.10740554
H        3.81370652       2.17611753       3.41290038       18      -0.01253298       0.03206302       0.08623612
H        3.82961079       3.50586409       5.57247118       19      -0.39426264      -0.14239183      -0.20147729
H        5.03688935       1.75799483       0.30938761       20      -0.05686088      -0.64673889      -0.14501864
H        1.67763471       7.87337512       8.28955382       21       0.02301522      -1.11673105       0.28509557
H        1.68376680      10.48524354      16.92079889       22      -0.03744951      -0.32451379      -0.07919082
H        5.00580253       4.38321113       8.96752933       23       0.05903649      -0.50735718       0.13865510
C        6.24266698       8.58333914       4.72050078       24       0.16793524      -0.09392076       0.25254476
C        6.24401378       9.31036250       3.54525701       25      -0.88274986       0.03770643      -0.14527266
C        0.46798012       2.46446928       3.90674514       26      -0.35898530      -0.00952466      -0.19390327
C        0.45986757       3.19839036       5.08176876       27       0.37528580       0.09308212       0.26977068
C        2.89089196       3.65281417      12.53130066       28       0.06296700      -0.11484654       0.16294210
C        2.89482695       2.92570699      13.71821311       29      -0.01400276       0.02378464      -0.10700659
C        3.81284441       9.76485653      13.34716392       30      -0.39069578      -0.00021136       0.24643712
C        3.80769823       9.02818320      12.17023880       31       0.16412356       0.03223770      -0.33809754
C        0.46630556       3.65188116      12.52995720       32      -0.31569907       0.06607275      -0.01285408
C        0.46738767       2.92335734      13.71603978       33      -0.02748820       0.03895837      -0.15335366
C        6.24521435       9.76636609      13.34571753       34      -0.86877418       0.05440752       0.28606501
C        6.24555821       9.03670411      12.17326083       35      -0.43459409      -0.17196184      -0.50128764
C        3.80862557       8.58173196       4.72423965       36       0.45592380      -0.06738482       0.19078672
C        3.81597328       9.31051927       3.54545501       37      -0.53309262      -0.07437442       0.10393491
C        2.88600353       2.46905333       3.90705690       38       0.33151662       0.07940559      -0.02061102
C        2.88560096       3.19760528       5.09074665       39       0.38826945       0.16525865       0.27279994
C        5.01392299       7.45224676       6.62442916       40      -0.16403887       0.73943895      -0.58552468
C        5.03356927       8.22975616       5.32448099       41      -0.82157743      -0.43409207       0.40784651
C        5.02522729      10.52401669       1.73347501       42       0.48890978       0.77089447      -1.16347861
C        5.01050692       9.68107347       2.95277973       43       1.34464324       0.08302882      -0.01033312
C        1.68224994       1.38415794       2.00356934       44       0.63279617      -0.41752544      -0.01797318
C        1.68286724       2.11603917       3.29919326       45      -0.18744594       0.03475638      -0.05079950
C        1.68001149       4.42172654       6.92052649       46      -1.00283074      -0.73467350      -1.16066134
C        1.67337721       3.57875732       5.68494343       47       0.00710930      -0.22082329      -0.28114495
C        1.68420373       4.77554479      10.65168432       48      -0.58505821      -0.06046385      -0.42576700
C        1.67961065       4.01400354      11.93041997       49      -0.02353990       0.06544808      -0.00798577
C        1.69260708       1.70744045      15.54598487       50      -2.02680206      -0.27738783       0.01696575
C        1.68091206       2.54680826      14.30584603       51      -0.05416734      -0.01838790       0.25205886
C        5.02863671      10.83882272      15.22173942       52       0.38163251       1.66752112       2.33405423
C        5.01336750      10.12483102      13.96305500       53       0.89185262      -0.69716620      -1.12967682
C        5.02748964       7.82388297      10.32675188       54      -1.75737679       0.29957825       0.75310874
C        5.02105659       8.66252153      11.56191233       55       0.25156415       0.24908003       0.53139073
O        6.17664414      10.88216004       1.23284425       56      -1.36714339      -0.73724931       1.00175250
O        6.15507264       7.18713797       7.11160529       57       0.08135464      -0.35954094       0.47005928
O        0.53873465       4.74595604       7.37076724       58      -0.33247951       0.34640890       0.53256696
O        0.55495819       1.08827971       1.51295529       59      -0.43148333      -0.08453339      -0.35707012
O        2.79937362       1.37363512      16.02014890       60       1.07438922      -0.17235573       0.30645180
O        2.81132860       5.05174407      10.13133432       61       0.08326499       0.00274354      -0.01660258
O        3.86715773       7.49106905       9.87823216       62       0.57048130      -0.04971465      -0.15196286
O        3.90204251      11.16844109      15.75610890       63       0.35410249      -0.47567317      -0.58814669
O        0.53923916       1.34194372      16.02769568       64       0.97743398       0.72344172      -0.69784647
O        0.53919868       5.05766877      10.13888972       65       0.41996026      -0.03560051       0.17258728
O        6.14000500       7.49077807       9.87281069       66       1.23361313      -0.52684087      -0.84708405
O        6.17047769      11.15120994      15.76748914       67      -1.02357566      -0.75053835      -1.06049585
O        3.88530480      10.85624328       1.24677623       68       0.54670846      -0.16191846       0.23483723
O        3.87086561       7.18951531       7.13613968       69       0.47450686      -0.05773062      -0.18363422
O        2.80006162       4.74034981       7.36837399       70       1.31269181       0.64378446       0.96094096
O        2.82151042       1.07177161       1.49652617       71      -0.38803715       0.28077558       0.21458064
O        5.02031214       0.80355456       0.08200738       72       0.08213547       0.71199089       0.20356542
O        1.67509744       6.91231649       8.53735572       73      -0.15668890       1.10334992      -0.29337919
O        1.67596818      11.41490761      17.16318146       74       0.16057022       0.36300331       0.08802660
O        5.02322583       5.30688695       8.71582638       75      -0.08202609       0.54809952      -0.15263864
76
Lattice="6.69641689 0.0 0.0 -3.7637290939345714e-05 12.222046719942048 0.0 -4.332273305622245e-06 -1.8096813096978593e-05 17.249546639989962" Properties=species:S:1:pos:R:3:spacegroup_kinds:I:1:forces:R:3 spacegroup="P 1" unit_cell=conventional occupancy="_JSON {\"0\": {\"Al\": 1}, \"1\": {\"Al\": 1}, \"2\": {\"Al\": 1}, \"3\": {\"Al\": 1}, \"4\": {\"H\": 1}, \"5\": {\"H\": 1}, \"6\": {\"H\": 1}, \"7\": {\"H\": 1}, \"8\": {\"H\": 1}, \"9\": {\"H\": 1}, \"10\": {\"H\": 1}, \"11\": {\"H\": 1}, \"12\": {\"H\": 1}, \"13\": {\"H\": 1}, \"14\": {\"H\": 1}, \"15\": {\"H\": 1}, \"16\": {\"H\": 1}, \"17\": {\"H\": 1}, \"18\": {\"H\": 1}, \"19\": {\"H\": 1}, \"20\": {\"H\": 1}, \"21\": {\"H\": 1}, \"22\": {\"H\": 1}, \"23\": {\"H\": 1}, \"24\": {\"C\": 1}, \"25\": {\"C\": 1}, \"26\": {\"C\": 1}, \"27\": {\"C\": 1}, \"28\": {\"C\": 1}, \"29\": {\"C\": 1}, \"30\": {\"C\": 1}, \"31\": {\"C\": 1}, \"32\": {\"C\": 1}, \"33\": {\"C\": 1}, \"34\": {\"C\": 1}, \"35\": {\"C\": 1}, \"36\": {\"C\": 1}, \"37\": {\"C\": 1}, \"38\": {\"C\": 1}, \"39\": {\"C\": 1}, \"40\": {\"C\": 1}, \"41\": {\"C\": 1}, \"42\": {\"C\": 1}, \"43\": {\"C\": 1}, \"44\": {\"C\": 1}, \"45\": {\"C\": 1}, \"46\": {\"C\": 1}, \"47\": {\"C\": 1}, \"48\": {\"C\": 1}, \"49\": {\"C\": 1}, \"50\": {\"C\": 1}, \"51\": {\"C\": 1}, \"52\": {\"C\": 1}, \"53\": {\"C\": 1}, \"54\": {\"C\": 1}, \"55\": {\"C\": 1}, \"56\": {\"O\": 1}, \"57\": {\"O\": 1}, \"58\": {\"O\": 1}, \"59\": {\"O\": 1}, \"60\": {\"O\": 1}, \"61\": {\"O\": 1}, \"62\": {\"O\": 1}, \"63\": {\"O\": 1}, \"64\": {\"O\": 1}, \"65\": {\"O\": 1}, \"66\": {\"O\": 1}, \"67\": {\"O\": 1}, \"68\": {\"O\": 1}, \"69\": {\"O\": 1}, \"70\": {\"O\": 1}, \"71\": {\"O\": 1}, \"72\": {\"O\": 1}, \"73\": {\"O\": 1}, \"74\": {\"O\": 1}, \"75\": {\"O\": 1}}" energy=-540.324951171875 free_energy=-540.324951171875 stress="-0.0030126457568258047 0.0008633015095256269 -9.379682160215452e-05 0.0008633015095256269 -0.0004411826375871897 -0.0018068216741085052 -9.379682160215452e-05 -0.0018068216741085052 -0.0023449568543583155" pbc="T T T"
Al      -0.02436516       0.02396307       0.00654296        0       0.56978947       0.10991091      -0.52500778
Al      -0.01670747       6.14022937       8.59935850        1       0.42518914      -0.34261701       0.09768739
Al       3.33108838       0.01901119      -0.01945996        2       0.52541316      -0.39455909       0.04283809
Al       3.31846704       6.13959511       8.60200090        3       0.56187338      -0.30631551       0.56102443
H        0.49610418       8.27573958       5.19086871        4      -0.33812138       0.09523270      -0.16358444
H        0.45294724       9.61072323       3.03635153        5       0.71163386       0.28375006      -0.45297033
H        6.23048875       2.19281914       3.40095253        6       0.67610192       0.15988597       0.52963924
H        6.21844294       3.49368887       5.53822626        7      -0.11717896       0.08807398      -0.02465816
H        3.79313723       3.91814050      12.04078102        8       0.98233759       0.45901400      -0.66888475
H        3.80545359       2.64812938      14.19217942        9       0.37019998      -0.06509759       0.04836994
H        2.85751408      10.07634658      13.82466789       10       1.04462469      -0.22959271      -0.32623917
H        2.85700138       8.74910836      11.66422388       11       0.19768693       0.14339843       0.22793648
H        6.23577070       3.98430616      12.05360453       12      -0.21219128       0.02671415      -0.14875162
H        6.20449831       2.64284019      14.16985557       13       1.04583597       0.19034138      -0.32013357
H        0.43493726      10.08693065      13.81716899       14       0.75450087      -0.02416803       0.19437701
H        0.47614741       8.72736185      11.68395212       15      -0.27698544       0.06080540      -0.03358196
H        2.89560362       8.31093605       5.17604648       16      -0.34308478      -0.22093391       0.28679615
H        2.86340008       9.61205456       3.06481826       17      -0.72815037       0.27532807      -0.38249159
H        3.80541938       2.18649764       3.38940055       18      -0.45932603       0.26340345       0.47593689
H        3.80570373       3.49372848       5.54290445       19       0.86467957       0.23479715       0.53162557
H        5.00814314       1.78220523       0.29334888       20       0.17727385      -0.79223722      -0.19759384
H        1.66160476       7.89940919       8.27821039       21       0.14049578      -1.03242958       0.25385562
H        1.68264619      10.50776983      16.92470376       22      -0.04182084      -0.94983178      -0.25009748
H        4.99657479       4.40749093       8.96181233       23       0.11539488      -0.14728534       0.04401072
C        6.25982879       8.59128935       4.70164938       24      -0.45733863       0.03421150       0.07652473
C        6.24819798       9.31966928       3.52002462       25      -1.75571215      -0.18883938       0.40432751
C        0.47480891       2.48588141       3.93246402       26      -0.71202415      -1.42382479      -3.01982617
C        0.45470248       3.21255364       5.05493069       27       0.06862596       1.25976586       2.40006399
C        2.87819118       3.67831973      12.50640763       28      -0.32494780      -0.83861250       1.58630776
C        2.89033538       2.95371051      13.70896846       29      -0.05726594       0.32518286      -0.70545220
C        3.83103621       9.77845198      13.34285248       30      -1.93326700      -0.09697106      -0.08472630
C        3.79174198       9.05535231      12.15126349       31       0.14892510      -0.05944712      -0.35178223
C        0.46884467       3.67707826      12.51149150       32      -0.55879569      -0.39996955       1.14574206
C        0.48686623       2.94535881      13.70200232       33      -1.83547866      -0.10156156       0.03056062
C        6.24447253       9.74399711      13.32739821       34      -0.59929490       0.38354337       0.23163162
C        6.22988260       9.04454862      12.14683383       35      -0.04016238      -0.41854918      -0.64604080
C        3.82391121       8.59101914       4.71009672       36      -0.95302838       0.85096681      -1.10074556
C        3.78633392       9.33792354       3.51692510       37       0.66704148      -0.61167449       0.86567378
C        2.87221663       2.49739828       3.91290152       38       1.44833887      -0.71944159      -1.03000844
C        2.89537177       3.18554022       5.09684655       39      -2.01471925       0.88010144       0.66444290
C        4.99306715       7.46163859       6.59577073       40       0.57326084       0.28928313       0.84047782
C        5.00874202       8.25913014       5.29885959       41       1.45386732      -1.10499930       1.13416469
C        5.05322224      10.54242637       1.72287900       42      -2.31121135       0.96842563      -1.44258165
C        4.98489148       9.70846243       2.93391096       43       2.11235428      -0.25300151       0.31566793
C        1.68802688       1.35857284       1.98345374       44      -1.29365778       1.49882627       1.69932568
C        1.68785049       2.14441199       3.30067222       45      -0.91595191      -0.65451628      -0.50327396
C        1.65924623       4.43471643       6.91126021       46      -0.19225115      -0.26530325      -0.46242675
C        1.64965653       3.60623144       5.68851298       47       1.20507312      -0.96131182      -1.03236187
C        1.66659243       4.76633088      10.62805292       48      -0.47907126       0.39391673       0.32512647
C        1.66417765       4.04086643      11.94693314       49       0.57072550       0.47369573      -1.67655659
C        1.70956353       1.70441467      15.53868074       50      -4.88908148       1.09932876      -1.51127386
C        1.68515283       2.57246312      14.28854435       51       0.06481226      -0.50651991       0.88465971
C        5.04064057      10.81388672      15.19733983       52      -0.37899822       2.48013663       2.63166714
C        5.03499153      10.11331563      13.93694561       53       0.28247327      -0.57537186      -0.51958209
C        5.04922801       7.82380097      10.31681623       54      -5.81839561       0.87270194       0.85806572
C        4.99730433       8.68887503      11.53668676       55       0.84654403      -0.10773864       0.42686796
O        6.15931116      10.90516228       1.21866141       56      -0.01099317      -0.56464928       0.72504419
O        6.17178487       7.19853633       7.10316076       57      -1.73350763       0.23647755      -0.63742375
O        0.51904751       4.75318250       7.38606370       58       0.29644313       0.21364796       0.22262031
O        0.55319308       1.11533245       1.48368778       59      -0.57816184      -0.35726345      -0.18392767
O        2.78334613       1.39861043      16.00122164       60       3.70850706      -1.17544734       1.60439944
O        2.78405299       5.07972653      10.12959898       61       0.68403232      -0.14845470      -0.36891207
O        3.83796720       7.49916310       9.85369648       62       2.07978201       0.33562952       0.56626570
O        3.90412553      11.16611788      15.72695536       63       0.38177803      -0.63338298      -0.65529877
O        0.53931077       1.35819158      16.00617140       64       1.13025475       0.45334387      -0.54637343
O        0.53698936       5.07252883      10.12186949       65      -0.22166523      -0.07287689      -0.02477635
O        6.11333522       7.50064771       9.84627192       66       3.42420721      -1.04989207      -1.47502196
O        6.15160093      11.17985268      15.74129010       67      -0.29958224      -0.92301530      -0.79473621
O        3.88123520      10.88065238       1.22114679       68       1.41675389      -0.40055704       0.66675067
O        3.85290374       7.19078713       7.14885010       69       1.61489975       0.52288234      -1.36811352
O        2.81256129       4.75426374       7.34111868       70      -0.02549824       0.44295645       0.69095421
O        2.79340117       1.09507928       1.48750228       71       1.84945321      -0.59271330      -0.90604150
O        5.04574050       0.82506465       0.06352058       72      -1.10227978       0.98665154       0.29457292
O        1.68420188       6.93938777       8.51990308       73      -0.97968090       1.04349637      -0.27225128
O        1.64900124      11.42635110      17.16077040       74       0.38388205       1.10537243       0.22577359
O        5.03000105       5.33364499       8.69465872       75      -0.58618486       0.16977343       0.00173400
76
Lattice="6.69641689 0.0 0.0 -3.7637290939345714e-05 12.222046719942048 0.0 -4.332273305622245e-06 -1.8096813096978593e-05 17.249546639989962" Properties=species:S:1:pos:R:3:spacegroup_kinds:I:1:forces:R:3 spacegroup="P 1" unit_cell=conventional occupancy="_JSON {\"0\": {\"Al\": 1}, \"1\": {\"Al\": 1}, \"2\": {\"Al\": 1}, \"3\": {\"Al\": 1}, \"4\": {\"H\": 1}, \"5\": {\"H\": 1}, \"6\": {\"H\": 1}, \"7\": {\"H\": 1}, \"8\": {\"H\": 1}, \"9\": {\"H\": 1}, \"10\": {\"H\": 1}, \"11\": {\"H\": 1}, \"12\": {\"H\": 1}, \"13\": {\"H\": 1}, \"14\": {\"H\": 1}, \"15\": {\"H\": 1}, \"16\": {\"H\": 1}, \"17\": {\"H\": 1}, \"18\": {\"H\": 1}, \"19\": {\"H\": 1}, \"20\": {\"H\": 1}, \"21\": {\"H\": 1}, \"22\": {\"H\": 1}, \"23\": {\"H\": 1}, \"24\": {\"C\": 1}, \"25\": {\"C\": 1}, \"26\": {\"C\": 1}, \"27\": {\"C\": 1}, \"28\": {\"C\": 1}, \"29\": {\"C\": 1}, \"30\": {\"C\": 1}, \"31\": {\"C\": 1}, \"32\": {\"C\": 1}, \"33\": {\"C\": 1}, \"34\": {\"C\": 1}, \"35\": {\"C\": 1}, \"36\": {\"C\": 1}, \"37\": {\"C\": 1}, \"38\": {\"C\": 1}, \"39\": {\"C\": 1}, \"40\": {\"C\": 1}, \"41\": {\"C\": 1}, \"42\": {\"C\": 1}, \"43\": {\"C\": 1}, \"44\": {\"C\": 1}, \"45\": {\"C\": 1}, \"46\": {\"C\": 1}, \"47\": {\"C\": 1}, \"48\": {\"C\": 1}, \"49\": {\"C\": 1}, \"50\": {\"C\": 1}, \"51\": {\"C\": 1}, \"52\": {\"C\": 1}, \"53\": {\"C\": 1}, \"54\": {\"C\": 1}, \"55\": {\"C\": 1}, \"56\": {\"O\": 1}, \"57\": {\"O\": 1}, \"58\": {\"O\": 1}, \"59\": {\"O\": 1}, \"60\": {\"O\": 1}, \"61\": {\"O\": 1}, \"62\": {\"O\": 1}, \"63\": {\"O\": 1}, \"64\": {\"O\": 1}, \"65\": {\"O\": 1}, \"66\": {\"O\": 1}, \"67\": {\"O\": 1}, \"68\": {\"O\": 1}, \"69\": {\"O\": 1}, \"70\": {\"O\": 1}, \"71\": {\"O\": 1}, \"72\": {\"O\": 1}, \"73\": {\"O\": 1}, \"74\": {\"O\": 1}, \"75\": {\"O\": 1}}" energy=-539.6071166992188 free_energy=-539.6071166992188 stress="-0.006632993929088116 0.00025431913672946393 0.00021755356283392757 0.00025431913672946393 -0.0016425728099420667 -0.001398948603309691 0.00021755356283392757 -0.001398948603309691 -0.0038814416620880365" pbc="T T T"
Al      -0.04746411       0.05284087      -0.01381375        0       0.69012773      -0.07959542      -0.41986334
Al      -0.04196693       6.16932314       8.57885696        1       0.51644021      -0.86626899      -0.04517228
Al       3.30259395       0.03182415      -0.04196960        2       0.85870606      -0.39443696      -0.07371935
Al       3.28917920       6.16703616       8.58665983        3       0.79422474      -0.52504557       0.66316378
H        0.49988072       8.28591373       5.16340382        4       0.02777106      -0.11472468      -0.01901916
H        0.44327221       9.62497961       3.00744899        5       0.33788237       0.11611792      -0.24067223
H        6.21261465       2.21186610       3.37157156        6       0.56336427       0.21350515       0.61601520
H        6.22139456       3.47883310       5.50879341        7      -0.17823425       0.26229399       0.19773883
H        3.80986675       3.91902714      12.01108137        8      -0.48286998       0.01505743      -0.01164831
H        3.77837367       2.65573843      14.16407884        9       0.36647666      -0.02557823       0.00738513
H        2.82899229      10.05296132      13.79742627       10       1.03070903      -0.01107084      -0.23004508
H        2.85525380       8.75155629      11.63494409       11      -0.19639459       0.10941179       0.13608640
H        6.22923769       4.01170848      12.02668904       12      -0.45696467       0.13268472      -0.27316314
H        6.22376212       2.65615360      14.14217576       13       0.07147625      -0.01771604      -0.02655604
H        0.41119208      10.09107298      13.79078023       14       1.78806019       0.35472667       0.74244344
H        0.44837516       8.70447546      11.65824854       15      -0.26221249       0.19551803      -0.04199868
H        2.88481964       8.31981032       5.14836126       16      -0.20850183      -0.13501273       0.27096510
H        2.84582130       9.60208291       3.03727558       17      -1.25455689       0.47852504      -0.61946541
H        3.79597935       2.19287517       3.35987890       18      -0.86181939       0.44168884       0.69611883
H        3.78732372       3.52055196       5.51638602       19       0.62713671       0.14721732       0.34217149
H        4.97827649       1.80900804       0.26579986       20       0.18065496      -0.79132694      -0.20059620
H        1.64433959       7.88109280       8.25947110       21       0.13069950       0.54806560      -0.15603791
H        1.70438468      10.52927902      16.92987269       22      -0.07502200      -1.16113973      -0.26706088
H        4.97840071       4.43261736       8.95144406       23       0.08867416       0.16835128      -0.06160970
C        6.26969961       8.56634940       4.67251788       24      -1.28886378       0.42316413      -0.14452609
C        6.23352402       9.30990662       3.49571220       25      -1.41633725       0.14277513       0.01322457
C        0.44804599       2.50707870       3.91103772       26       0.24204250      -1.59675455      -3.13627338
C        0.46728879       3.22462651       5.03911137       27      -0.79080212       0.95924604       1.96848965
C        2.85177732       3.65643033      12.48680074       28       1.37445140       0.06347908       0.38676092
C        2.86375298       2.96880904      13.67991518       29      -0.07065701      -0.50127465       0.59183145
C        3.81128825       9.80241202      13.31348633       30      -2.00848365      -0.03125771       0.29342693
C        3.76446733       9.08178417      12.12804860       31       0.77102751      -0.31614920      -0.51957119
C        0.45248575       3.70535392      12.48453481       32      -0.77044475      -1.01107585       1.88839471
C        0.46743444       2.95918377      13.67438408       33      -0.82135469       0.04493315       0.16841076
C        6.25302063       9.76240883      13.30026283       34      -2.73981047       0.35124955       0.01503615
C        6.21738947       9.07350645      12.11813756       35      -0.04181293      -0.72353733      -0.48635477
C        3.81191554       8.61852035       4.68142349       36      -0.40055776       0.29866391      -0.52921367
C        3.75748725       9.35779739       3.49274597       37       1.87100840      -0.67341053       0.88209069
C        2.84481902       2.51564548       3.88357371       38       2.33917713      -0.79522568      -0.98083961
C        2.86759279       3.21365120       5.06809508       39      -0.82417840       0.63918132       0.49094120
C        4.97397413       7.48891211       6.56683874       40       0.62618321      -0.54313087       1.47668648
C        5.01148053       8.25137309       5.27548892       41       0.74455595      -0.47961923       0.43101549
C        5.03516124      10.55763734       1.69718622       42      -2.70615864       0.43671328      -0.84970689
C        4.97186918       9.72625212       2.90491799       43       1.79175484      -0.74771482       0.93348157
C        1.66413478       1.36184631       1.95448771       44      -0.58714187       1.83951187       2.17530847
C        1.67852011       2.14835126       3.27784197       45      -1.94437456      -0.57227802      -0.58904958
C        1.65740242       4.44557924       6.88481841       46       0.46088350      -0.05082664       0.55067790
C        1.65382914       3.61394634       5.66840184       47       0.81168628      -0.49910641      -0.71599579
C        1.64771931       4.78785385      10.60051088       48      -0.45282957      -0.63716471       1.50691569
C        1.64650920       4.03142869      11.94008786       49       0.67375124       1.33622968      -2.89112258
C        1.68159619       1.69671843      15.51164476       50      -4.31800079       1.81160045      -1.57564962
C        1.66106042       2.59051210      14.29718715       51      -0.02086078      -0.14830881      -0.46139872
C        5.06657148      10.84247329      15.18125858       52      -3.36211443       1.65143919       1.87169647
C        5.00945681      10.14055516      13.91279991       53       1.59203255      -0.64653528      -0.74205303
C        5.07373708       7.82916888      10.29135261       54     -10.77864838       2.10742426       2.78419352
C        4.97458282       8.70620807      11.53373319       55       1.27222848      -0.32466146      -0.37412319