82
Lattice="8.38070117 0.0 0.0 -1.4875911690108092 10.083070199456179 0.0 -2.578436930580265 -5.182759334118907 10.015673740888802" Properties=species:S:1:pos:R:3:spacegroup_kinds:I:1:forces:R:3 spacegroup="P 1" unit_cell=conventional occupancy="_JSON {\"0\": {\"Cu\": 1}, \"1\": {\"Cu\": 1}, \"2\": {\"H\": 1}, \"3\": {\"H\": 1}, \"4\": {\"H\": 1}, \"5\": {\"H\": 1}, \"6\": {\"H\": 1}, \"7\": {\"H\": 1}, \"8\": {\"H\": 1}, \"9\": {\"H\": 1}, \"10\": {\"H\": 1}, \"11\": {\"H\": 1}, \"12\": {\"H\": 1}, \"13\": {\"H\": 1}, \"14\": {\"H\": 1}, \"15\": {\"H\": 1}, \"16\": {\"H\": 1}, \"17\": {\"H\": 1}, \"18\": {\"H\": 1}, \"19\": {\"H\": 1}, \"20\": {\"H\": 1}, \"21\": {\"H\": 1}, \"22\": {\"H\": 1}, \"23\": {\"H\": 1}, \"24\": {\"H\": 1}, \"25\": {\"H\": 1}, \"26\": {\"H\": 1}, \"27\": {\"H\": 1}, \"28\": {\"C\": 1}, \"29\": {\"C\": 1}, \"30\": {\"C\": 1}, \"31\": {\"C\": 1}, \"32\": {\"C\": 1}, \"33\": {\"C\": 1}, \"34\": {\"C\": 1}, \"35\": {\"C\": 1}, \"36\": {\"C\": 1}, \"37\": {\"C\": 1}, \"38\": {\"C\": 1}, \"39\": {\"C\": 1}, \"40\": {\"C\": 1}, \"41\": {\"C\": 1}, \"42\": {\"C\": 1}, \"43\": {\"C\": 1}, \"44\": {\"C\": 1}, \"45\": {\"C\": 1}, \"46\": {\"C\": 1}, \"47\": {\"C\": 1}, \"48\": {\"C\": 1}, \"49\": {\"C\": 1}, \"50\": {\"C\": 1}, \"51\": {\"C\": 1}, \"52\": {\"C\": 1}, \"53\": {\"C\": 1}, \"54\": {\"C\": 1}, \"55\": {\"C\": 1}, \"56\": {\"C\": 1}, \"57\": {\"C\": 1}, \"58\": {\"C\": 1}, \"59\": {\"C\": 1}, \"60\": {\"C\": 1}, \"61\": {\"C\": 1}, \"62\": {\"C\": 1}, \"63\": {\"C\": 1}, \"64\": {\"C\": 1}, \"65\": {\"C\": 1}, \"66\": {\"N\": 1}, \"67\": {\"N\": 1}, \"68\": {\"N\": 1}, \"69\": {\"N\": 1}, \"70\": {\"N\": 1}, \"71\": {\"N\": 1}, \"72\": {\"O\": 1}, \"73\": {\"O\": 1}, \"74\": {\"O\": 1}, \"75\": {\"O\": 1}, \"76\": {\"O\": 1}, \"77\": {\"O\": 1}, \"78\": {\"O\": 1}, \"79\": {\"O\": 1}, \"80\": {\"O\": 1}, \"81\": {\"O\": 1}}" energy=-568.7978515625 free_energy=-568.7978515625 stress="-0.0017307611415162683 -0.000924313731957227 -0.002765381010249257 -0.000924313731957227 0.001698677777312696 -0.002311708638444543 -0.002765381010249257 -0.002311708638444543 -0.003694412298500538" pbc="T T T"
Cu      -1.19470021       6.28860411       4.37906770        0       0.00225878       0.10591094      -0.09328853
Cu       5.51341385      -1.44802708       5.69653862        1      -0.00571018      -0.07116153       0.11366693
H        2.42889839      -0.97620561       8.20048204        2      -0.00166145      -0.10957171       0.22834285
H        1.88100581       5.81660690       1.87514311        3      -0.06988419       0.05320637      -0.12487838
H       -0.73276380       7.99084227       1.95126018        4       0.24943310       0.24060850      -0.08701323
H        5.06029321      -3.15056966       8.12432300        5      -0.45033228      -0.47839710      -0.05749896
H        4.51949555       2.70689029       9.50567407        6      -0.02092890      -0.04405546       0.04030015
H       -0.20113739       2.13346961       0.56996947        7      -0.00013224       0.00472471      -0.02265784
H        3.25191039       0.73065602       8.65170830        8      -0.01168005       0.02240838       0.02914631
H        1.03689617       4.10977052       1.42387462        9       0.04138768       0.01850758       0.03528678
H        5.82425739       4.35451502       2.65386015       10      -0.15260506      -0.30039731       0.29630405
H       -1.49886957       0.50069143       7.40691697       11       0.00155785      -0.23104225       0.21939419
H        1.68557777      -1.99742544       6.35919698       12       0.01957320      -0.09344539       0.12093043
H        2.64554687       6.83760237       3.71649908       13      -0.11087255      -0.03219274      -0.04205521
H        3.40428129       1.46156096       0.21275795       14      -0.05061271      -0.02278843       0.01708595
H        0.91687791       3.37875547       9.86285729       15       0.06899794       0.01156316      -0.01278192
H       -1.86443683       4.50641924       9.03690731       16       0.11162655       0.22275649      -0.13265803
H        6.16204243       0.33389690       1.03864455       17       0.05566767      -0.03548021       0.06042190
H       -1.96427955       4.54816897       6.53233087       18      -0.21355869      -0.23490889      -0.12842834
H        6.30024311       0.29214312       3.54322385       19      -0.20187287      -0.19771370      -0.17971095
H        2.59856868      -0.70584711       3.30365794       20      -0.26646280       0.32114723       0.01838828
H        1.73604436       5.54636189       6.77196091       21      -0.04054727       0.01879916       0.05429474
H        3.83356858       1.31619218       2.51319853       22      -0.06444098       0.00312808       0.01540942
H        0.46981861       3.52440085       7.56258458       23      -0.04666651       0.00343214       0.04093483
H        2.85200315       3.55969894       2.81325630       24      -0.00983821      -0.03496544      -0.01941784
H        1.45056707       1.28082024       7.26265609       25      -0.01204410       0.02702637       0.03664369
H       -0.58455261       1.82051709       4.70276247       26      -0.92642033       0.00204086       0.45235506
H        4.91084740       3.01965486       5.37290205       27      -0.13178109       0.07635655       0.07132616
C       -1.25576749       7.15292111       1.51587234       28      -0.31515276      -0.06077945      -0.17908046
C        5.56274797      -2.31249488       8.55975389       29       0.70565724       0.43457019       0.23611687
C        6.79874141       7.08625198       0.16590657       30      -0.21414113      -0.26812765      -0.07246155
C       -2.48554731      -2.24571575       9.90964188       31       0.00830948       0.07220790      -0.05186266
C        3.50257815       0.79502300       9.70633662       32       0.37911069       0.32040480       0.11533134
C        0.79484953       4.04544984       0.36922467       33      -0.29348230      -0.18055664      -0.05565730
C        5.74682957       4.95386721       0.57911493       34      -0.30055022      -0.07624272       0.05676504
C       -1.45174262      -0.11339180       9.49658273       35       0.37457159       0.28451577       0.03780320
C        6.07688249       5.10702772       1.92894768       36       0.31912950       0.25562403      -0.23858374
C       -1.75619403      -0.26656311       8.14671198       37      -0.34811226       0.14290339      -0.38061497
C        1.22217418      -2.76300935       6.98500867       38       0.33658591       0.38489884      -0.03996482
C        3.09617706       7.60318857       3.09055449       39      -0.31397980      -0.39739093      -0.10720060
C        1.37929000      -2.71596584       8.38455345       40      -0.82675815      -0.63195407       0.17979434
C        2.93349124       7.55626813       1.69097041       41       0.79514813       0.57591987      -0.25090101
C        0.74586755      -3.73136656       9.14667726       42       0.48911899       0.33980107      -0.18123308
C        3.57728801       8.57170082       0.92901051       43      -0.67213190      -0.52410382       0.14320582
C       -1.40692053       5.33312951       8.47963709       44      -0.25166738      -0.29376039      -0.14068040
C        5.72408869      -0.49295936       1.59596573       45      -0.05224339       0.13251883       0.16887289
C       -1.50021060       5.34199982       7.09400141       46       0.36109155       0.12233635       0.20569742
C        5.79111132      -0.50169151       2.98156986       47       0.57839304       0.71210545       0.07220088
C        5.04509254       3.67784035       0.20523743       48       0.24293321       0.31535876       0.25171852
C       -0.76196383       1.16251340       9.87045487       49       0.38746825       0.13306212      -0.24604589
C        0.93102757       0.43068407       4.04145946       50      -1.39268732       0.30844894       0.59369302
C        3.37826406       4.40994265       6.03427191       51       0.90495408      -0.21404836      -0.46244818
C        2.14126741       0.29046409       3.40211152       52       1.16220069      -0.39143851      -0.32447985
C        2.15896414       4.54987932       6.67357731       53      -0.67436361       0.06012325       0.18169659
C        2.84499441       1.41123906       2.96023681       54      -0.04116169       0.10407374       0.03550610
C        1.45402152       3.42915170       7.11552597       55       0.19715446       0.00999087      -0.12360674
C        2.29315836       2.67818777       3.12546195       56       0.19464552      -0.08782139      -0.08460547
C        2.00850188       2.16205612       6.95026459       57      -0.46670207       0.09355317       0.16973570
C        1.03684623       2.83322138       3.71825101       58      -0.41636425      -0.25038725       0.18858211
C        3.25624057       2.00711445       6.35732882       59       0.69767892       0.10513955      -0.31797719
C        0.33826657       1.70391800       4.19368505       60       1.51965547      -0.02028611      -0.62217796
C        3.94946230       3.13654298       5.88195907       61      -0.08851344      -0.17073005      -0.00442263
C        0.22721780      -0.79048232       4.58794022       62       0.03234962      -0.53252745       0.04739764
C        4.08032950       5.63082958       5.48780048       63       0.30483025       0.48389637      -0.22261603
C        0.46421656       4.21352905       3.84445853       64       0.03907189      -0.06529766       0.00027317
C        3.83567358       0.62667138       6.23110097       65       0.38373977      -0.06638527      -0.16130939
N       -0.92761381       6.33902178       6.36857913       66      -0.20506057      -0.28714681       0.31246567
N        5.24893449      -1.49882666       3.70692783       67      -0.08910280       0.02684410      -0.20062271
N        2.05921656      -1.63534211       8.91461034       68       0.35586196       0.33939874      -0.11877456
N        2.24060573       6.47578290       1.16110038       69      -0.33284488      -0.17132577       0.00614539
N       -1.62788055       6.18338546       2.38214544       70      -0.13910502      -0.11345293      -0.27522245
N        5.94890463      -1.34294165       7.69353299       71       0.00640206      -0.03464662       0.25104696
O        4.87283211       2.80466345       1.06659461       72      -0.06404995      -0.15788493      -0.10760744
O       -0.54504374       2.03572728       9.00911124       73      -0.22826126      -0.20645210       0.33141041
O        0.70025574      -1.90060595       4.11228664       74      -0.29430500       0.26434126       0.26160759
O        3.60869933       6.74093849       5.96344255       75       0.29042947      -0.27342188      -0.28538409
O       -0.70137521      -0.66740428       5.43528677       76       0.45280707       0.36000717      -0.52573127
O        5.01875324       5.50766241       4.64056610       77      -0.76613384      -0.32884601       0.76456416
O        1.11165539       5.20013667       3.38788705       78       0.20160058      -0.04693037       0.01864402
O        3.18399274      -0.35980777       6.68785113       79       0.00257748       0.19140641      -0.13246775
O       -0.68891907       4.32765759       4.39591976       80      -0.25199229      -0.06167957       0.16344993
O        5.00468138       0.51244835       5.67956027       81      -0.44705972       0.09467855       0.17017379
82
Lattice="8.38070117 0.0 0.0 -1.4875911690108092 10.083070199456179 0.0 -2.578436930580265 -5.182759334118907 10.015673740888802" Properties=species:S:1:pos:R:3:spacegroup_kinds:I:1:forces:R:3 spacegroup="P 1" unit_cell=conventional occupancy="_JSON {\"0\": {\"Cu\": 1}, \"1\": {\"Cu\": 1}, \"2\": {\"H\": 1}, \"3\": {\"H\": 1}, \"4\": {\"H\": 1}, \"5\": {\"H\": 1}, \"6\": {\"H\": 1}, \"7\": {\"H\": 1}, \"8\": {\"H\": 1}, \"9\": {\"H\": 1}, \"10\": {\"H\": 1}, \"11\": {\"H\": 1}, \"12\": {\"H\": 1}, \"13\": {\"H\": 1}, \"14\": {\"H\": 1}, \"15\": {\"H\": 1}, \"16\": {\"H\": 1}, \"17\": {\"H\": 1}, \"18\": {\"H\": 1}, \"19\": {\"H\": 1}, \"20\": {\"H\": 1}, \"21\": {\"H\": 1}, \"22\": {\"H\": 1}, \"23\": {\"H\": 1}, \"24\": {\"H\": 1}, \"25\": {\"H\": 1}, \"26\": {\"H\": 1}, \"27\": {\"H\": 1}, \"28\": {\"C\": 1}, \"29\": {\"C\": 1}, \"30\": {\"C\": 1}, \"31\": {\"C\": 1}, \"32\": {\"C\": 1}, \"33\": {\"C\": 1}, \"34\": {\"C\": 1}, \"35\": {\"C\": 1}, \"36\": {\"C\": 1}, \"37\": {\"C\": 1}, \"38\": {\"C\": 1}, \"39\": {\"C\": 1}, \"40\": {\"C\": 1}, \"41\": {\"C\": 1}, \"42\": {\"C\": 1}, \"43\": {\"C\": 1}, \"44\": {\"C\": 1}, \"45\": {\"C\": 1}, \"46\": {\"C\": 1}, \"47\": {\"C\": 1}, \"48\": {\"C\": 1}, \"49\": {\"C\": 1}, \"50\": {\"C\": 1}, \"51\": {\"C\": 1}, \"52\": {\"C\": 1}, \"53\": {\"C\": 1}, \"54\": {\"C\": 1}, \"55\": {\"C\": 1}, \"56\": {\"C\": 1}, \"57\": {\"C\": 1}, \"58\": {\"C\": 1}, \"59\": {\"C\": 1}, \"60\": {\"C\": 1}, \"61\": {\"C\": 1}, \"62\": {\"C\": 1}, \"63\": {\"C\": 1}, \"64\": {\"C\": 1}, \"65\": {\"C\": 1}, \"66\": {\"N\": 1}, \"67\": {\"N\": 1}, \"68\": {\"N\": 1}, \"69\": {\"N\": 1}, \"70\": {\"N\": 1}, \"71\": {\"N\": 1}, \"72\": {\"O\": 1}, \"73\": {\"O\": 1}, \"74\": {\"O\": 1}, \"75\": {\"O\": 1}, \"76\": {\"O\": 1}, \"77\": {\"O\": 1}, \"78\": {\"O\": 1}, \"79\": {\"O\": 1}, \"80\": {\"O\": 1}, \"81\": {\"O\": 1}}" energy=-568.6350708007812 free_energy=-568.6350708007812 stress="-0.0024761566892266273 0.00019141413213219494 -0.0030300593934953213 0.00019141413213219494 0.003660338232293725 -0.0034877227153629065 -0.0030300593934953213 -0.0034877227153629065 -0.004122825805097818" pbc="T T T"
Cu      -1.16591126       6.25861644       4.40905587        0      -0.03964168       0.12579161      -0.11133707
Cu       5.52631803      -1.47802030       5.72652337        1       0.02490449      -0.05364902       0.12081571
H        2.44780045      -1.00611234       8.23044581        2      -0.10790090      -0.22551429       0.33975697
H        1.89621588       5.78680436       1.90513880        3      -0.13071392      -0.02916947      -0.08626732
H       -0.73080384       7.96085632       1.98125516        4       0.43775749       0.46252725       0.04639988
H        5.07659715      -3.18056336       8.15431398        5      -0.71162558      -0.78558487      -0.26634571
H        4.54877670       2.67692982       9.53566950        6      -0.02328041      -0.07657404       0.04244771
H       -0.21265758       2.11032669       0.59311274        7      -0.07872367      -0.20425609       0.18377085
H        3.27540187       0.70069415       8.68169857        8       0.00518854       0.03145461       0.00563571
H        1.02611527       4.07980095       1.45386605        9       0.05918355       0.03246497       0.08671978
H        5.82301154       4.32452397       2.68384153       10      -0.12903723      -0.25162548       0.29346910
H       -1.47159594       0.47071501       7.43691337       11       0.00923867      -0.27564937       0.22304735
H        1.71286312      -2.02741930       6.38918262       12      -0.02887764      -0.15439807       0.17125346
H        2.66355486       6.80761011       3.74647463       13      -0.21526252      -0.15085602       0.07232869
H        3.41986526       1.43158088       0.24274873       14      -0.08012377      -0.02766146       0.00073305
H        0.93880996       3.34878142       9.89284782       15       0.06663921       0.00948993      -0.02579747
H       -1.85914730       4.47644213       9.06690156       16       0.11075855       0.24206044      -0.14312905
H        6.16709398       0.30391885       1.06863791       17       0.20691791       0.13240674      -0.05363604
H       -1.94253667       4.51820653       6.56232047       18      -0.27260953      -0.30413005      -0.20647764
H        6.32679065       0.26216197       3.57320986       19      -0.25812548      -0.27334452      -0.20566389
H        2.62299688      -0.73584031       3.33364056       20      -0.36357599       0.41793990       0.04781338
H        1.75409550       5.51636551       6.80194797       21      -0.04085227       0.01096441       0.05153247
H        3.83326386       1.28620429       2.54318572       22       0.41321409      -0.01522902      -0.18151881
H        0.47398550       3.49442245       7.59257621       23       0.32659149       0.01243197      -0.09942047
H        2.85539700       3.52972140       2.84324675       24      -0.00125363      -0.01656602      -0.03650954
H        1.46600383       1.25085822       7.29264811       25      -0.16605686      -0.08657416       0.09845717
H       -0.56375715       1.79058182       4.73273368       26      -1.26308572       0.05971067       0.63158816
H        4.92371498       2.98966189       5.40289763       27       0.07473566      -0.01966083      -0.01482423
C       -1.23560882       7.12293419       1.54586485       28      -0.54049051      -0.34258285      -0.19467144
C        5.55352889      -2.34248617       8.58974698       29       1.20716798       1.01483643       0.28779364
C        6.82560403       7.05634959       0.19588917       30      -0.30699787      -0.40810496      -0.14015166
C       -2.49595829      -2.27569517       9.93963703       31       0.13878579       0.40467948      -0.21463478
C        3.52459198       0.76505693       9.73632072       32       0.23613320       0.19736351       0.22968990
C        0.79100742       4.01548875       0.39918860       33      -0.35965315      -0.20090391      -0.17130858
C        5.73920524       4.92390176       0.60910003       34      -0.00211444       0.23155907       0.06672718
C       -1.44478427      -0.14331120       9.52657993       35       0.45601264       0.23139033       0.20833535
C        6.08014742       5.07714845       1.95894279       36       0.34549895       0.37052950      -0.24650891
C       -1.73177552      -0.29655184       8.17658185       37      -0.61216784      -0.09437492      -0.51542222
C        1.24271450      -2.79297875       7.01498105       38       0.43120882       0.45159566      -0.07593216
C        3.10051090       7.57319551       3.12050956       39      -0.09834308      -0.08833905      -0.16110606
C        1.39734603      -2.74594043       8.41453396       40      -1.10452306      -0.88322294       0.14323120
C        2.93049084       7.52628878       1.72092591       41       1.22251797       0.92957020      -0.25276586
C        0.75543667      -3.76133764       9.17667400       42       0.54487562       0.36582124      -0.23552148
C        3.59604508       8.54173185       0.95899109       43      -0.83685875      -0.63517928       0.30145746
C       -1.40123574       5.30365040       8.50958643       44      -0.17918746      -0.22752659      -0.12511322
C        5.74699372      -0.52274805       1.62592129       45      -0.30262432      -0.15480307       0.22282609
C       -1.48627662       5.31201761       7.12396680       46       0.50559390       0.31058323       0.18388182
C        5.81129472      -0.53164957       3.01154084       47       0.56246603       0.67246026       0.17619088
C        5.03847005       3.64786496       0.23523121       48       0.34255937       0.41085789       0.31212759
C       -0.75164563       1.13253307       9.90043698       49       0.28580761       0.04816005      -0.22709486
C        0.93851597       0.40072090       4.07141888       50      -1.00972080       0.35596094       0.45912999
C        3.39827554       4.38000652       6.06426440       51       0.94686019      -0.30338970      -0.46740240
C        2.15581000       0.26047122       3.43210083       52       1.15616798      -0.35362473      -0.30460489
C        2.17729766       4.52002047       6.70355032       53      -0.70979649      -0.01649821       0.20501468
C        2.86163836       1.38129586       2.99019769       54      -0.73387641       0.13829827       0.29170933
C        1.47190191       3.39921802       7.14550039       55      -0.37724030       0.33171007       0.07899477
C        2.29690062       2.64826924       3.15545835       56       0.79607958      -0.19401155      -0.30047396
C        2.01364446       2.13207946       6.98024355       57      -0.78274977       0.11177763       0.30970976
C        1.05729571       2.80325761       3.74824191       58      -1.12509787      -0.27136633       0.42423499
C        3.23922880       1.97717484       6.38730833       59       2.21306014       0.21649635      -0.89357328
C        0.34795354       1.67405745       4.22367313       60       1.96392477      -0.04731138      -0.82838744
C        3.97147897       3.10655496       5.91192966       61      -0.92633438      -0.37916654       0.32402360
C        0.25475953      -0.82045265       4.61790115       62      -0.64306599      -0.53255296       0.37391716
C        4.09606387       5.60087178       5.51779674       63       0.48234275       0.54739362      -0.32132506
C        0.47004991       4.18353730       3.87443846       64       0.68885624      -0.22799620      -0.20289463
C        3.84050811       0.59676142       6.26108747       65       0.33536538      -0.02986327      -0.21460509
N       -0.90147688       6.30902964       6.39856179       66      -0.36355364      -0.48491415       0.34119856
N        5.26425815      -1.52882090       3.73692064       67      -0.15765196      -0.04528621      -0.35075766
N        2.06153339      -1.66525815       8.94458337       68       0.57974219       0.62337399      -0.20575209
N        2.24970052       6.44580389       1.19099680       69      -0.38650867      -0.19911647      -0.07398964
N       -1.61399792       6.15346162       2.41211880       70      -0.22156739      -0.24657185      -0.36977133
N        5.96374130      -1.37293104       7.72352479       71      -0.04667970      -0.08272617       0.34348714
O        4.86996336       2.77468546       1.09657955       72      -0.08465157      -0.17093328      -0.07406786
O       -0.54106934       2.00573282       9.03910562       73      -0.18246318      -0.15375577       0.32585478
O        0.72008120      -1.93058560       4.14228217       74      -0.21472833       0.24189979       0.26444727
O        3.61939999       6.71098288       5.99342171       75       0.35365832      -0.34900969      -0.35638332
O       -0.68844445      -0.69734586       5.46527773       76       0.84942245       0.29881972      -0.79945445
O        5.04084842       5.47767634       4.67054562       77      -0.98105121      -0.27493742       0.93669075
O        1.11624951       5.17015095       3.41787587       78       0.31210852       0.07528138      -0.07877699
O        3.18883204      -0.38978933       6.71784149       79       0.04684502       0.15664095      -0.12239236
O       -0.66805525       4.29767941       4.42590407       80      -0.86589831      -0.09220243       0.44543821
O        5.01360209       0.48249608       5.70953442       81      -0.67184699       0.16641454       0.28388995
82
Lattice="8.38070117 0.0 0.0 -1.4875911690108092 10.083070199456179 0.0 -2.578436930580265 -5.182759334118907 10.015673740888802" Properties=species:S:1:pos:R:3:spacegroup_kinds:I:1:forces:R:3 spacegroup="P 1" unit_cell=conventional occupancy="_JSON {\"0\": {\"Cu\": 1}, \"1\": {\"Cu\": 1}, \"2\": {\"H\": 1}, \"3\": {\"H\": 1}, \"4\": {\"H\": 1}, \"5\": {\"H\": 1}, \"6\": {\"H\": 1}, \"7\": {\"H\": 1}, \"8\": {\"H\": 1}, \"9\": {\"H\": 1}, \"10\": {\"H\": 1}, \"11\": {\"H\": 1}, \"12\": {\"H\": 1}, \"13\": {\"H\": 1}, \"14\": {\"H\": 1}, \"15\": {\"H\": 1}, \"16\": {\"H\": 1}, \"17\": {\"H\": 1}, \"18\": {\"H\": 1}, \"19\": {\"H\": 1}, \"20\": {\"H\": 1}, \"21\": {\"H\": 1}, \"22\": {\"H\": 1}, \"23\": {\"H\": 1}, \"24\": {\"H\": 1}, \"25\": {\"H\": 1}, \"26\": {\"H\": 1}, \"27\": {\"H\": 1}, \"28\": {\"C\": 1}, \"29\": {\"C\": 1}, \"30\": {\"C\": 1}, \"31\": {\"C\": 1}, \"32\": {\"C\": 1}, \"33\": {\"C\": 1}, \"34\": {\"C\": 1}, \"35\": {\"C\": 1}, \"36\": {\"C\": 1}, \"37\": {\"C\": 1}, \"38\": {\"C\": 1}, \"39\": {\"C\": 1}, \"40\": {\"C\": 1}, \"41\": {\"C\": 1}, \"42\": {\"C\": 1}, \"43\": {\"C\": 1}, \"44\": {\"C\": 1}, \"45\": {\"C\": 1}, \"46\": {\"C\": 1}, \"47\": {\"C\": 1}, \"48\": {\"C\": 1}, \"49\": {\"C\": 1}, \"50\": {\"C\": 1}, \"51\": {\"C\": 1}, \"52\": {\"C\": 1}, \"53\": {\"C\": 1}, \"54\": {\"C\": 1}, \"55\": {\"C\": 1}, \"56\": {\"C\": 1}, \"57\": {\"C\": 1}, \"58\": {\"C\": 1}, \"59\": {\"C\": 1}, \"60\": {\"C\": 1}, \"61\": {\"C\": 1}, \"62\": {\"C\": 1}, \"63\": {\"C\": 1}, \"64\": {\"C\": 1}, \"65\": {\"C\": 1}, \"66\": {\"N\": 1}, \"67\": {\"N\": 1}, \"68\": {\"N\": 1}, \"69\": {\"N\": 1}, \"70\": {\"N\": 1}, \"71\": {\"N\": 1}, \"72\": {\"O\": 1}, \"73\": {\"O\": 1}, \"74\": {\"O\": 1}, \"75\": {\"O\": 1}, \"76\": {\"O\": 1}, \"77\": {\"O\": 1}, \"78\": {\"O\": 1}, \"79\": {\"O\": 1}, \"80\": {\"O\": 1}, \"81\": {\"O\": 1}}" energy=-568.5018920898438 free_energy=-568.5018920898438 stress="-0.0020054129417985678 0.0007116625783964992 -0.003742507891729474 0.0007116625783964992 0.0051117464900016785 -0.004307857248932123 -0.003742507891729474 -0.004307857248932123 -0.004411003552377224" pbc="T T T"
Cu      -1.14320591       6.22862316       4.43902775        0      -0.05101943       0.08963765      -0.12674731
Cu       5.52591186      -1.50799511       5.75651700        1       0.04955286      -0.00337626       0.14970803
H        2.44995936      -1.03599414       8.26044023        2      -0.02577835      -0.10662101       0.29520109
H        1.90715245       5.75682583       1.93513268        3      -0.07980137       0.05124860      -0.13768449
H       -0.71171940       7.93106093       2.01124652        4       0.42910320       0.43714112       0.04596102
H        5.09921728      -3.21053298       8.18430518        5      -0.78649080      -0.89765012      -0.37646595
H        4.57804551       2.64693320       9.56564219        6      -0.02584246      -0.10565893       0.05039752
H       -0.22210629       2.08033741       0.62309307        7      -0.10587894      -0.20397180       0.18496326
H        3.30299020       0.67080266       8.71166522        8       0.01341803       0.02137423      -0.02600485
H        1.04297398       4.04985361       1.48385968        9      -0.10686809      -0.01397598      -0.09632745
H        5.83185325       4.29452819       2.71378833       10      -0.17118019      -0.28715622       0.35558942
H       -1.44540141       0.44073775       7.46690614       11       0.03377611      -0.27940804       0.19987464
H        1.73753090      -2.05740753       6.41913236       12      -0.09458221      -0.21642035       0.22471681
H        2.68380687       6.77762085       3.77645218       13      -0.40928644      -0.35553479       0.21483973
H        3.44318953       1.40159631       0.27272725       14      -0.07927843      -0.03465554      -0.00119601
H        0.95856477       3.31878749       9.92283376       15       0.08505364       0.00433522      -0.01614398
H       -1.83263743       4.44648537       9.09689917       16       0.02827850       0.15217362      -0.09046955
H        6.18673821       0.27397917       1.09859671       17       0.17583258       0.08691330      -0.03384732
H       -1.91871024       4.48821165       6.59225449       18      -0.28223428      -0.32181928      -0.24154821
H        6.35304848       0.23227924       3.60319809       19      -0.25743276      -0.30998373      -0.19340265
H        2.64501805      -0.76577357       3.36361030       20      -0.31951180       0.37140274       0.03625353
H        1.76638149       5.48636880       6.83194468       21       0.07174210      -0.09454303       0.01737936
H        3.85053959       1.25626416       2.57300308       22       0.66639185      -0.03100627      -0.29183266
H        0.48894866       3.46454675       7.62253030       23       0.17334503       0.02910297      -0.05069471
H        2.87674979       3.49974814       2.87322130       24       0.02867214       0.01522423      -0.05526188
H        1.46591731       1.22086045       7.32261105       25       0.09581311       0.14908457      -0.01212421
H       -0.54053824       1.76061881       4.76265849       26      -1.23897529       0.05551746       0.61693293
H        4.93593143       2.95967699       5.43286801       27       0.37356323      -0.08176023      -0.16360562
C       -1.21798392       7.09293915       1.57584229       28      -0.46240047      -0.34609509      -0.07309632
C        5.56689162      -2.37247201       8.61974245       29       1.22466207       1.19427085       0.07372171
C        6.85189561       7.02654241       0.22584924       30      -0.42098314      -0.51093745      -0.23618519
C       -2.50706571      -2.30566722       9.96962138       31       0.29729426       0.54020065      -0.03718393
C        3.54820097       0.73511451       9.76628860       32       0.14415400       0.13102554       0.32165408
C        0.77890866       3.98553237       0.42917316       33       0.06317893       0.08320723      -0.05230876
C        5.74039190       4.89394455       0.63904676       34       0.16000152       0.50246036       0.05620601
C       -1.42162782      -0.17328350       9.55646811       35       0.16997679      -0.06811157       0.33534443
C        6.07895408       5.04718398       1.98893010       36       0.67397320       0.70416033      -0.21360771
C       -1.70310268      -0.32645562       8.20654782       37      -0.72535414      -0.20314527      -0.55951935
C        1.25917084      -2.82291211       7.04484177       38       0.66513085       0.66487205      -0.06859224
C        3.09837817       7.54321273       3.15050079       39       0.37335250       0.36949009      -0.24602532
C        1.41740266      -2.77590431       8.44446644       40      -1.20145047      -0.96841526       0.13504945
C        2.95039099       7.49632213       1.75079487       41       1.07881999       0.86402225      -0.31064263