80
Lattice="7.74450533 0.0 0.0 0.5064109572494604 10.12165396243849 0.0 -1.2970484174275108 3.420021347291669 12.36204691473962" Properties=species:S:1:pos:R:3:spacegroup_kinds:I:1:forces:R:3 spacegroup="P 1" unit_cell=conventional occupancy="_JSON {\"0\": {\"Cu\": 1}, \"1\": {\"Cu\": 1}, \"2\": {\"H\": 1}, \"3\": {\"H\": 1}, \"4\": {\"H\": 1}, \"5\": {\"H\": 1}, \"6\": {\"H\": 1}, \"7\": {\"H\": 1}, \"8\": {\"H\": 1}, \"9\": {\"H\": 1}, \"10\": {\"H\": 1}, \"11\": {\"H\": 1}, \"12\": {\"H\": 1}, \"13\": {\"H\": 1}, \"14\": {\"H\": 1}, \"15\": {\"H\": 1}, \"16\": {\"H\": 1}, \"17\": {\"H\": 1}, \"18\": {\"H\": 1}, \"19\": {\"H\": 1}, \"20\": {\"H\": 1}, \"21\": {\"H\": 1}, \"22\": {\"H\": 1}, \"23\": {\"H\": 1}, \"24\": {\"H\": 1}, \"25\": {\"H\": 1}, \"26\": {\"H\": 1}, \"27\": {\"H\": 1}, \"28\": {\"C\": 1}, \"29\": {\"C\": 1}, \"30\": {\"C\": 1}, \"31\": {\"C\": 1}, \"32\": {\"C\": 1}, \"33\": {\"C\": 1}, \"34\": {\"C\": 1}, \"35\": {\"C\": 1}, \"36\": {\"C\": 1}, \"37\": {\"C\": 1}, \"38\": {\"C\": 1}, \"39\": {\"C\": 1}, \"40\": {\"C\": 1}, \"41\": {\"C\": 1}, \"42\": {\"C\": 1}, \"43\": {\"C\": 1}, \"44\": {\"C\": 1}, \"45\": {\"C\": 1}, \"46\": {\"C\": 1}, \"47\": {\"C\": 1}, \"48\": {\"C\": 1}, \"49\": {\"C\": 1}, \"50\": {\"C\": 1}, \"51\": {\"C\": 1}, \"52\": {\"C\": 1}, \"53\": {\"C\": 1}, \"54\": {\"C\": 1}, \"55\": {\"C\": 1}, \"56\": {\"C\": 1}, \"57\": {\"C\": 1}, \"58\": {\"C\": 1}, \"59\": {\"C\": 1}, \"60\": {\"C\": 1}, \"61\": {\"C\": 1}, \"62\": {\"C\": 1}, \"63\": {\"C\": 1}, \"64\": {\"C\": 1}, \"65\": {\"C\": 1}, \"66\": {\"N\": 1}, \"67\": {\"N\": 1}, \"68\": {\"N\": 1}, \"69\": {\"N\": 1}, \"70\": {\"N\": 1}, \"71\": {\"N\": 1}, \"72\": {\"O\": 1}, \"73\": {\"O\": 1}, \"74\": {\"O\": 1}, \"75\": {\"O\": 1}, \"76\": {\"O\": 1}, \"77\": {\"O\": 1}, \"78\": {\"O\": 1}, \"79\": {\"O\": 1}}" energy=-550.9193115234375 free_energy=-550.9193115234375 stress="-4.377532150101615e-06 0.006217451766133308 0.0019235257059335709 0.006217451766133308 -0.010927669703960419 -0.0006901462329551578 0.0019235257059335709 -0.0006901462329551578 0.005938173271715641" pbc="T T T"
Cu       5.05268574       9.04888579       8.85698123        0       0.15461046       1.14537323       0.10996199
Cu       1.93674886       4.45665785       3.48194207        1      -0.40539199      -0.29616404       0.21581766
H        4.00407291      10.00136496       6.11254643        2       0.30222899      -0.81505936      -0.17627391
H        2.93122938       3.53090006       6.23007981        3      -0.48301661       1.14780617       0.38793936
H        3.95392854       8.98458988       3.83925014        4      -0.22570291       0.04763785      -0.51913792
H        3.04428575       4.56256470       8.55237524        5      -0.11290794       0.32560089      -0.18771172
H        4.86684220       6.62846041       3.50870541        6      -0.02053366       0.56060225       1.01870155
H        2.06762000       6.88365049       8.84985459        7      -0.08260053      -0.04996786      -0.42130491
H        5.86963543       5.48412375       5.43482489        8       0.07117946       0.04228130       0.20780687
H        1.05505390       8.08660065       6.92715836        9       0.09262793      -0.38672873      -0.41251317
H        6.52701487       4.54544658       7.33221191       10      -0.19795822       0.88723177       1.20967603
H        0.39307823       8.97988223       4.97475546       11      -0.26852211       0.48589897       0.84827238
H       -0.82291297       3.69359625       9.69899319       12       0.19169407      -0.82313061       0.02238079
H        7.79593523       9.85899712       2.69615549       13       0.20924640      -0.50774300       0.09319305
H        6.31243726       5.08614145      11.63982775       14       0.14856070      -0.19420987       0.95276201
H        0.62399995       8.41288696       0.67616488       15      -0.05703004      -0.10550635       0.70573890
H        6.98529321       3.18525935       0.90196972       16      -0.53930676       0.94890916      -0.43778884
H       -0.00946599      10.34662530      11.47511653       17       0.06931093      -0.06571352       0.40741587
H        6.04004135       4.92190295       2.37525905       18       0.15676109       0.46981785      -1.24256945
H        0.91903834       8.63250266      10.01917065       19      -0.16924159       0.11348017      -1.03660345
H        5.15485434       7.07297117       1.34150176       20       0.22108194      -0.23044175      -0.16607666
H        1.80671775       6.47960815      11.02652809       21       0.24168298      -0.47768226      -0.45744494
H        3.94163111      10.78535828      11.16640904       22       0.61685377      -1.25447249       0.81571996
H        2.98223505       2.76073919       1.14666649       23      -0.00392399       0.51016027      -0.31875324
H        1.96076402       2.49489965       8.08184452       24       0.61437464       1.39324117      -0.09112306
H        4.95960514      11.03871597       4.27210589       25      -0.41181517      -1.04414773       0.02337013
H       -0.36285843       2.35973733       7.51823196       26      -0.43038610       0.87455076      -0.20559692
H        7.32452511      11.14752269       4.84126426       27      -0.25074092       0.02264997      -0.20999794
C        4.40566189       8.97881699       5.91381990       28       0.14245917       0.42920709       0.43323207
C        2.51866670       4.56216316       6.45725810       29       0.93941402      -1.28943348      -0.32373294
C        4.39089459       8.39698158       4.62698743       30      -1.04166079       2.78644586       1.87789631
C        2.59822453       5.13952928       7.72929437       31      -0.08565590      -0.91353452      -0.63902712
C        4.88313696       7.16650822       4.50091177       32       1.36104739      -3.49746561      -1.89335442
C        2.03494813       6.38868944       7.86668074       33      -0.29324782       1.46456885       0.33193010
C        5.46051040       6.48281969       5.57696935       34      -0.55626845       0.46946058      -0.28469130
C        1.48954149       7.08867929       6.75837318       35       0.51689446      -0.84176785       1.49282372
C        5.40824628       7.12038650       6.81544480       36       1.19864535      -2.76166892       0.99911571
C        1.54343053       6.43116812       5.52706981       37      -0.71970260       2.09479809       0.42893001
C        5.79542418       6.43454140       8.09906808       38      -0.51616561       2.10215855      -1.11569130
C        1.14725869       7.09674456       4.30827241       39       0.09639563      -1.69400609      -1.17808938
C        6.30520319       5.18271863       8.26387461       40       0.69895214      -2.63900447      -1.39125085
C        0.61187766       8.36317130       4.13728177       41       0.41958946      -0.06217548      -0.57141817
C        6.50268467       4.66249432       9.54471639       42      -0.40893456       1.69376278       0.41579950
C        0.44627602       8.83197565       2.84720004       43      -0.59382558       0.91933751      -0.74809068
C        6.19780140       5.47650344      10.65697933       44      -0.13875331       0.38876951      -1.13121295
C        0.73472853       8.04500354       1.72130881       45      -0.16817424       1.24154103      -0.60831988
C        5.73175295       6.79428547      10.44331738       46      -0.35927945      -0.35901707      -1.03062141
C        1.22321163       6.79097843       1.93938568       47       1.07419300      -3.01163626       0.57181883
C        5.25967017       7.77301578      11.40163589       48       0.49615189      -2.12205362       2.42745686
C        1.69695018       5.77076820       0.94297007       49      -0.46872681       1.72687018       0.41620481
C        6.54200006       4.12698463       0.47218598       50       1.29155862      -1.34968925      -2.15071487
C        0.39828118       9.44321015      11.94145507       51       0.01095603      -0.72994065      -1.28105807
C        6.09160854       5.13873353       1.26170712       52      -0.14631215      -1.51438808       3.19319868
C        0.86504227       8.43791073      11.05754725       53       0.46204337      -0.11861167       2.14562964
C        5.59234952       6.27387824       0.72485577       54      -0.71651495       2.18550777      -1.14930439
C        1.40076606       7.26651919      11.62563863       55      -0.62930530       0.91650975       0.26769477
C        4.34992344       9.84861036      11.69105871       56      -1.69257653       2.61496067       0.72825396
C        2.65433086       3.70167352       0.65607686       57       0.83453745      -2.22408366      -1.09782863
C        2.81249736      10.50035399       8.54067472       58      -0.67366505      -0.55343544      -0.45109439
C        4.16706873       3.01971932       3.87425990       59       0.80455542       1.69990039      -0.38742271
C        1.96197018      11.70045925       8.15875088       60      -0.58812582      -2.12645364       0.54637843
C        4.96773518       1.83872898       4.19542237       61       1.07902503       0.93555653       0.06443251
C        0.64354045      11.61591238       7.89579816       62       1.05791378      -0.30979469      -0.15032181
C        6.27990030       1.91413205       4.46450110       63       0.66979361      -0.09612265       0.50282240
C       -0.20323153      10.39552230       7.87969491       64      -0.49722928      -1.53401899      -0.40269062
C        7.18401724       3.13470375       4.48262959       65       0.24128228       1.98508763       0.47112647
N        4.92811453       8.32675308       6.99433084       66      -1.54626262       1.99300623      -1.62866771
N        2.03561227       5.21526951       5.39291725       67       0.76037860      -1.45170474       0.41494194
N        5.55580921       7.23849414       9.14691531       68       0.61699027      -1.43155932       1.52024662
N        1.37829193       6.28999015       3.21975467       69      -0.53146410       2.16303849      -0.57304978
N        4.77881432       8.89860109      10.91461974       70       0.41865793       0.26710653      -1.54023230
N        2.17655498       4.61155830       1.44166612       71      -0.75355041       1.32857537       1.11705005
O        4.09451290      10.77423857       8.63008588       72      -0.74333322      -0.70007700       0.06143535
O        2.91691985       2.80909121       3.73588085       73      -1.50102735      -0.64109755       0.00094232
O        2.27119526       9.34611754       8.64896381       74       1.02302814       1.79792786      -0.12601878
O        4.67104535       4.17771012       3.75148010       75       0.21684724      -0.86189032       0.26480573
O        6.93048374      10.14288438       8.97391148       76      -0.38517416       0.28366470       0.16042066
O        0.07606315       3.36877896       3.36531750       77      -0.34277683      -0.52925402       1.51943886
O       -0.31547067       9.70819169       6.81189241       78       0.33642751       0.94363439       0.58152676
O        7.25970046       3.84267904       5.57595629       79      -0.10116139      -1.79178655      -2.23750949
80
Lattice="7.74450533 0.0 0.0 0.5064109572494604 10.12165396243849 0.0 -1.2970484174275108 3.420021347291669 12.36204691473962" Properties=species:S:1:pos:R:3:spacegroup_kinds:I:1:forces:R:3 spacegroup="P 1" unit_cell=conventional occupancy="_JSON {\"0\": {\"Cu\": 1}, \"1\": {\"Cu\": 1}, \"2\": {\"H\": 1}, \"3\": {\"H\": 1}, \"4\": {\"H\": 1}, \"5\": {\"H\": 1}, \"6\": {\"H\": 1}, \"7\": {\"H\": 1}, \"8\": {\"H\": 1}, \"9\": {\"H\": 1}, \"10\": {\"H\": 1}, \"11\": {\"H\": 1}, \"12\": {\"H\": 1}, \"13\": {\"H\": 1}, \"14\": {\"H\": 1}, \"15\": {\"H\": 1}, \"16\": {\"H\": 1}, \"17\": {\"H\": 1}, \"18\": {\"H\": 1}, \"19\": {\"H\": 1}, \"20\": {\"H\": 1}, \"21\": {\"H\": 1}, \"22\": {\"H\": 1}, \"23\": {\"H\": 1}, \"24\": {\"H\": 1}, \"25\": {\"H\": 1}, \"26\": {\"H\": 1}, \"27\": {\"H\": 1}, \"28\": {\"C\": 1}, \"29\": {\"C\": 1}, \"30\": {\"C\": 1}, \"31\": {\"C\": 1}, \"32\": {\"C\": 1}, \"33\": {\"C\": 1}, \"34\": {\"C\": 1}, \"35\": {\"C\": 1}, \"36\": {\"C\": 1}, \"37\": {\"C\": 1}, \"38\": {\"C\": 1}, \"39\": {\"C\": 1}, \"40\": {\"C\": 1}, \"41\": {\"C\": 1}, \"42\": {\"C\": 1}, \"43\": {\"C\": 1}, \"44\": {\"C\": 1}, \"45\": {\"C\": 1}, \"46\": {\"C\": 1}, \"47\": {\"C\": 1}, \"48\": {\"C\": 1}, \"49\": {\"C\": 1}, \"50\": {\"C\": 1}, \"51\": {\"C\": 1}, \"52\": {\"C\": 1}, \"53\": {\"C\": 1}, \"54\": {\"C\": 1}, \"55\": {\"C\": 1}, \"56\": {\"C\": 1}, \"57\": {\"C\": 1}, \"58\": {\"C\": 1}, \"59\": {\"C\": 1}, \"60\": {\"C\": 1}, \"61\": {\"C\": 1}, \"62\": {\"C\": 1}, \"63\": {\"C\": 1}, \"64\": {\"C\": 1}, \"65\": {\"C\": 1}, \"66\": {\"N\": 1}, \"67\": {\"N\": 1}, \"68\": {\"N\": 1}, \"69\": {\"N\": 1}, \"70\": {\"N\": 1}, \"71\": {\"N\": 1}, \"72\": {\"O\": 1}, \"73\": {\"O\": 1}, \"74\": {\"O\": 1}, \"75\": {\"O\": 1}, \"76\": {\"O\": 1}, \"77\": {\"O\": 1}, \"78\": {\"O\": 1}, \"79\": {\"O\": 1}}" energy=-549.3690795898438 free_energy=-549.3690795898438 stress="-0.0032849390991032124 0.006845864932984114 0.0015432214131578803 0.006845864932984114 -0.014192797243595123 0.0038160248659551144 0.0015432214131578803 0.0038160248659551144 0.010415648110210896" pbc="T T T"
Cu       5.02278961       9.07475954       8.83364691        0       0.47980314       0.47447270       0.47172609
Cu       1.90875105       4.46961153       3.49858983        1      -0.17204602      -0.68540943      -0.20601039
H        4.01114004      10.01490968       6.08572560        2       0.15339532      -0.83265328       0.03349553
H        2.92273738       3.52340635       6.21669076        3      -0.49425438       1.57208979       0.44959682
H        3.92519674       9.00858143       3.85766865        4       0.11749504      -0.47141761       0.01601823
H        3.04279703       4.54375756       8.53002635        5       0.29829472      -0.02680546       0.62880504
H        4.88714394       6.62680084       3.48830869        6      -0.01298871       0.83577466       1.11712968
H        2.09129490       6.90236651       8.84730409        7      -0.32780087      -0.28971189      -0.80727530
H        5.84300397       5.47753161       5.40719265        8      -0.02255406       0.22402014       0.36730075
H        1.07652461       8.10257456       6.92627423        9      -0.02928070      -0.11674699      -0.38821518
H        6.52079405       4.54352841       7.30893560       10      -0.32067531       1.20882559       1.87157714
H        0.39550018       8.98806161       4.95660187       11      -0.19837871       0.11450453       0.52555668
H       -0.84345722       3.70500540       9.70677479       12       0.38991362      -1.07232594       0.13239208
H        7.80039938       9.88803818       2.67176686       13       0.46935624      -1.64812517       0.60434461
H        6.31232316       5.09810238      11.63574338       14       0.19039652      -0.43764165       1.93071365
H        0.63091502       8.41357603       0.65387080       15      -0.04366670      -0.13668045       1.27595782
H        6.98992500       3.21020433       0.87800456       16      -0.31005493       0.21790779       0.05603155
H       -0.03476086      10.32901072      11.48149819       17       0.35420084      -0.58285892       0.72121501
H        6.04425330       4.91880531       2.38222804       18       0.27307475       0.64597309      -1.38225389
H        0.94241305       8.61358379       9.99481730       19      -0.43698886       0.27985686      -0.02110324
H        5.13295056       7.05216275       1.35757124       20       0.32786518      -0.45726871      -0.48194563
H        1.79653384       6.50220446      11.00053912       21       0.74541318      -1.41312885      -1.06673551
H        3.91202289      10.78562631      11.16031137       22       0.89768910      -1.60141468       0.86257410
H        3.00597247       2.73687982       1.15055847       23      -0.45559299       1.81105447      -0.94972348
H        1.93101749       2.50409594       8.10429325       24       0.97981328       1.75224185      -0.13865960
H        4.93128999      11.03977807       4.26355156       25       0.07568288      -0.56641638       0.01299629
H       -0.37435149       2.37837848       7.52199962       26      -0.19105093       0.57231557      -0.00739247
H        7.29834053      11.12940553       4.84224198       27       0.04665184       0.10951215      -0.20420516
C        4.38572994       8.97860638       5.92708521       28       0.47596198       0.22643211       0.06592312
C        2.53536556       4.58560314       6.43635881       29       1.08242774      -1.93338799       0.92896229
C        4.37683119       8.38379196       4.64444283       30      -1.73556674       4.24220276       1.00657094
C        2.62470895       5.15107286       7.75498417       31      -0.93495369      -0.88100970      -3.44977450
C        4.90575779       7.18984801       4.47571325       32       1.31305850      -4.57880306      -1.58457303
C        2.01483680       6.38557729       7.85616796       33       0.47077256       1.87636590       1.75016522
C        5.43431313       6.48055244       5.57026097       34      -0.03344019       0.60206211      -0.71795988
C        1.50590147       7.11049738       6.77191144       35       0.60040694      -2.28479052      -0.48163670
C        5.43390114       7.14172636       6.79475534       36       1.08286774      -3.75897884       1.58090186
C        1.56420091       6.40353166       5.49855477       37      -1.64629388       4.46061230       2.70733476
C        5.81036467       6.40719700       8.09198985       38      -1.77604687       5.82158899      -0.70420384
C        1.12961019       7.07830048       4.32524878       39       0.35471147      -1.37594819      -1.76071846
C        6.29175971       5.20013795       8.27681018       40       1.82887578      -5.09050846      -1.50475907
C        0.60205868       8.33848342       4.12133672       41       0.16755319       0.38289911       1.45726204
C        6.51656306       4.68179815       9.57091050       42      -0.96331060       2.13801050       0.26364315
C        0.42626447       8.80516169       2.86410206       43      -0.96564180       3.01313829      -2.22265506
C        6.18399403       5.49404166      10.68406580       44       0.16600190       0.03198765      -2.74661446
C        0.73331206       8.06711126       1.72781007       45       0.20314588      -0.21826003      -1.12405169
C        5.71402658       6.79624696      10.43439190       46      -0.65301079       0.32510501      -0.16818859
C        1.22991787       6.79537338       1.95640823       47       0.50177252      -1.89066911       0.52287525
C        5.23086061       7.77228975      11.41675598       48       1.38994980      -3.80708885       2.62959337
C        1.66744739       5.80004092       0.95661378       49       0.38039702       0.14871696       1.43617952
C        6.52368911       4.12554517       0.49578660       50       1.48147631      -1.26379740      -3.32538366
C        0.39422393       9.41491141      11.97094373       51      -0.82728410       1.09717274      -2.87344623
C        6.11552256       5.14888055       1.26349547       52      -0.54916239      -1.60828400       4.08853388
C        0.84593115       8.44627449      11.06293217       53       1.22848761      -1.08907914       1.08982754
C        5.57652237       6.25405771       0.72027782       54      -0.87286639       3.08395481      -1.31863785
C        1.41516600       7.25571601      11.60393118       55      -1.66560340       2.79742813       1.02264190
C        4.35296675       9.84143690      11.68085960       56      -1.99134231       2.62146163       1.19842243
C        2.65746166       3.72972786       0.62716029       57       0.92151093      -3.09289169       1.10907531
C        2.79854409      10.50468776       8.56525043       58      -0.82794696      -0.96959865      -1.19103169
C        4.15367465       3.03383599       3.87112274       59       1.43853045       0.63164252      -0.31114078
C        1.96902298      11.69983044       8.13651413       60      -1.02236187      -2.32898784       1.05147505
C        4.98198887       1.83613921       4.19237469       61       0.20288691       0.94165874      -0.04862330
C        0.64408219      11.63167725       7.91110205       62       0.79921639      -0.24022719      -0.72662926
C        6.29782353       1.91277490       4.45185462       63       0.17858692       0.03159148       0.55855167
C       -0.19854625      10.41240638       7.88601731       64      -0.50603527      -2.23330832      -2.21720028
C        7.18745463       3.16234279       4.47520916       65      -0.07292533       1.25240314       1.13328362
N        4.95002267       8.33868650       6.98855621       66      -1.69282901       2.24016047      -1.45738339
N        2.01386457       5.20228609       5.36552066       67       1.49261260      -2.21026373       1.08300197
N        5.54438284       7.26544634       9.16201914       68       1.01110446      -2.67559195       0.13332810
N        1.39183760       6.29092297       3.24538807       69      -0.78899056       2.14078188      -1.65304828
N        4.80093161       8.87250291      10.93000020       70      -0.57109821       2.43116260      -2.27003741
N        2.16779495       4.63274203       1.46389704       71      -0.31969765       0.50709462      -0.40763402
O        4.06727365      10.74921468       8.63521263       72       0.18083507       0.16963509       0.25897503
O        2.91268227       2.82644680       3.70777355       73      -1.69727457      -0.73848236       0.09360225
O        2.29757443       9.33174255       8.63792623       74       0.32191968       1.69152641       0.09310549
O        4.68052240       4.16699525       3.75548152       75       0.38230407      -0.04192886       0.22174135
O        6.93113105      10.16078870       8.95181498       76      -0.83717227       0.13865469       1.09592307
O        0.09098544       3.37213270       3.36938431       77      -0.28514165      -0.21940786       1.49968255
O       -0.32993347       9.69787919       6.79524785       78       0.71041369       1.82757831       1.61932862
O        7.23361281       3.85684672       5.59396212       79       0.08449641      -1.82167780      -2.85849118
80
Lattice="7.74450533 0.0 0.0 0.5064109572494604 10.12165396243849 0.0 -1.2970484174275108 3.420021347291669 12.36204691473962" Properties=species:S:1:pos:R:3:spacegroup_kinds:I:1:forces:R:3 spacegroup="P 1" unit_cell=conventional occupancy="_JSON {\"0\": {\"Cu\": 1}, \"1\": {\"Cu\": 1}, \"2\": {\"H\": 1}, \"3\": {\"H\": 1}, \"4\": {\"H\": 1}, \"5\": {\"H\": 1}, \"6\": {\"H\": 1}, \"7\": {\"H\": 1}, \"8\": {\"H\": 1}, \"9\": {\"H\": 1}, \"10\": {\"H\": 1}, \"11\": {\"H\": 1}, \"12\": {\"H\": 1}, \"13\": {\"H\": 1}, \"14\": {\"H\": 1}, \"15\": {\"H\": 1}, \"16\": {\"H\": 1}, \"17\": {\"H\": 1}, \"18\": {\"H\": 1}, \"19\": {\"H\": 1}, \"20\": {\"H\": 1}, \"21\": {\"H\": 1}, \"22\": {\"H\": 1}, \"23\": {\"H\": 1}, \"24\": {\"H\": 1}, \"25\": {\"H\": 1}, \"26\": {\"H\": 1}, \"27\": {\"H\": 1}, \"28\": {\"C\": 1}, \"29\": {\"C\": 1}, \"30\": {\"C\": 1}, \"31\": {\"C\": 1}, \"32\": {\"C\": 1}, \"33\": {\"C\": 1}, \"34\": {\"C\": 1}, \"35\": {\"C\": 1}, \"36\": {\"C\": 1}, \"37\": {\"C\": 1}, \"38\": {\"C\": 1}, \"39\": {\"C\": 1}, \"40\": {\"C\": 1}, \"41\": {\"C\": 1}, \"42\": {\"C\": 1}, \"43\": {\"C\": 1}, \"44\": {\"C\": 1}, \"45\": {\"C\": 1}, \"46\": {\"C\": 1}, \"47\": {\"C\": 1}, \"48\": {\"C\": 1}, \"49\": {\"C\": 1}, \"50\": {\"C\": 1}, \"51\": {\"C\": 1}, \"52\": {\"C\": 1}, \"53\": {\"C\": 1}, \"54\": {\"C\": 1}, \"55\": {\"C\": 1}, \"56\": {\"C\": 1}, \"57\": {\"C\": 1}, \"58\": {\"C\": 1}, \"59\": {\"C\": 1}, \"60\": {\"C\": 1}, \"61\": {\"C\": 1}, \"62\": {\"C\": 1}, \"63\": {\"C\": 1}, \"64\": {\"C\": 1}, \"65\": {\"C\": 1}, \"66\": {\"N\": 1}, \"67\": {\"N\": 1}, \"68\": {\"N\": 1}, \"69\": {\"N\": 1}, \"70\": {\"N\": 1}, \"71\": {\"N\": 1}, \"72\": {\"O\": 1}, \"73\": {\"O\": 1}, \"74\": {\"O\": 1}, \"75\": {\"O\": 1}, \"76\": {\"O\": 1}, \"77\": {\"O\": 1}, \"78\": {\"O\": 1}, \"79\": {\"O\": 1}}" energy=-547.7448120117188 free_energy=-547.7448120117188 stress="-0.0027841876726597548 0.006686253007501364 0.00036334499600343406 0.006686253007501364 -0.026781747117638588 0.004979788325726986 0.00036334499600343406 0.004979788325726986 0.012658562511205673" pbc="T T T"
Cu       5.04726074       9.04858190       8.83515371        0       0.17492568       1.11953449       0.71870673
Cu       1.92573208       4.49118199       3.48846292        1      -0.13199145      -0.80949366       0.10571865
H        4.00739394      10.01775300       6.10966764        2       0.30994463      -1.09971738      -0.20220977
H        2.90832455       3.55345134       6.19359221        3      -0.28910244       1.02431238       0.66198659
H        3.91267775       9.02817444       3.83100348        4       0.55630732      -0.95631391       0.86273807
H        3.03324812       4.52490149       8.50524606        5       0.53684920      -0.16188987       1.24395037
H        4.91345074       6.64983051       3.50598400        6      -0.16097102       0.73875862       1.09033310
H        2.12146032       6.89153460       8.86281838        7      -0.41473693      -0.51784819      -1.49592018
H        5.81780650       5.44902131       5.42088753        8       0.07936323       0.34154207       0.50141883
H        1.05861783       8.12277443       6.90741249        9       0.01826008      -0.16968232      -0.30988982
H        6.54014276       4.56151866       7.32392699       10      -0.61680543       1.38369393       2.13441849
H        0.37958100       9.00193135       4.93780148       11      -0.31241819       0.35532150       0.90351284
H       -0.86843866       3.69373634       9.68530536       12       0.25779903      -0.36230689       0.16060731
H        7.79546759       9.86292048       2.66312863       13       0.27134588      -0.96654892       0.55020869
H        6.29228082       5.12564670      11.63511184       14       0.30662209      -0.89475816       3.20051217
H        0.64728917       8.38497748       0.67509339       15      -0.22913411       0.60454381      -0.38644475
H        6.99076273       3.20209174       0.88276743       16      -0.58612639       0.65627456       0.00363391
H       -0.05011921      10.30317421      11.47718408       17      -0.04030007       0.18643050       0.57616007
H        6.05214386       4.94508680       2.37153470       18       0.25410008       0.53327084      -1.66373301
H        0.92792141       8.63301690       9.97456737       19      -0.47849840       0.39745507      -0.14090948
H        5.11178010       7.07094554       1.33652675       20       0.61349356      -0.73152250      -0.36903796
H        1.81267991       6.50096720      10.99690174       21       0.67799848      -1.35810971      -1.08890820
H        3.93926751      10.77665656      11.17607194       22       0.59882641      -1.16724491       0.38544130
H        3.01122831       2.76209801       1.12749821       23      -0.35237995       1.21295643      -0.41616040
H        1.91841485       2.47698711       8.11622239       24       1.98090482       3.72282600      -0.19737163
H        4.90544088      11.01972508       4.25031389       25       0.58730519       0.40316677       0.05690641
H       -0.36527410       2.35105268       7.54206898       26      -0.78563315       1.59917200      -0.50483078
H        7.30473810      11.15754802       4.86383907       27      -0.13860323       0.32612014      -0.21965054
C        4.39918355       8.97827181       5.91819855       28       0.24111380       1.72773123       1.71476066
C        2.53373707       4.58699013       6.45998549       29       1.25083661      -1.61050987       0.45565295
C        4.38390202       8.40914961       4.66269922       30      -1.72450233       3.05232811      -0.64001310
C        2.64829699       5.17092781       7.76585253       31      -0.86786151      -2.04083014      -4.32516575
C        4.89813372       7.18749660       4.50535950       32       1.49640942      -3.97855234      -1.72581315
C        2.03930639       6.37704479       7.83470077       33      -0.18437630       4.03826904       3.02766275
C        5.45369874       6.46961924       5.59177415       34      -0.90267849       1.02993560      -1.69789183
C        1.51093842       7.13796975       6.76789975       35       1.03289187      -3.48173857      -0.38288024
C        5.41343072       7.16340598       6.77902784       36       1.78676176      -4.20588112       3.58744168
C        1.58458324       6.37602416       5.50950717       37      -2.93945217       7.89126587       2.06244254
C        5.78501806       6.41856559       8.11868148       38      -1.80858231       6.09782171      -1.89863527
C        1.13387165       7.10089105       4.32699457       39       0.67387235      -2.51663685      -1.71978188
C        6.26403158       5.22268406       8.30570222       40       2.59282231      -5.92168331      -2.12879896
C        0.58748307       8.34509255       4.12591074       41       0.36686566       0.17603585       0.71290219
C        6.53192714       4.71012788       9.58411022       42      -1.07531953       1.07271838       0.72152007
C        0.42409833       8.81146911       2.85397224       43      -0.68959224       2.20387697      -2.37641120
C        6.17461866       5.51125146      10.71016911       44       0.86390412      -1.06543398      -4.42881393
C        0.74316692       8.09487374       1.70310743       45       0.64083284      -2.28868151       1.23845720
C        5.74145776       6.77260493      10.40939820       46      -1.42880702       1.82312083       1.84120917