72
Lattice="7.83562571 0.0 0.0 -1.096024111336937 8.618923986944342 0.0 -3.338544415595277 -4.2628534266442175 10.793226200924835" Properties=species:S:1:pos:R:3:spacegroup_kinds:I:1:forces:R:3 spacegroup="P 1" unit_cell=conventional occupancy="_JSON {\"0\": {\"Ga\": 1}, \"1\": {\"Ga\": 1}, \"2\": {\"P\": 1}, \"3\": {\"P\": 1}, \"4\": {\"P\": 1}, \"5\": {\"P\": 1}, \"6\": {\"H\": 1}, \"7\": {\"H\": 1}, \"8\": {\"H\": 1}, \"9\": {\"H\": 1}, \"10\": {\"H\": 1}, \"11\": {\"H\": 1}, \"12\": {\"H\": 1}, \"13\": {\"H\": 1}, \"14\": {\"H\": 1}, \"15\": {\"H\": 1}, \"16\": {\"H\": 1}, \"17\": {\"H\": 1}, \"18\": {\"H\": 1}, \"19\": {\"H\": 1}, \"20\": {\"H\": 1}, \"21\": {\"H\": 1}, \"22\": {\"H\": 1}, \"23\": {\"H\": 1}, \"24\": {\"H\": 1}, \"25\": {\"H\": 1}, \"26\": {\"H\": 1}, \"27\": {\"H\": 1}, \"28\": {\"C\": 1}, \"29\": {\"C\": 1}, \"30\": {\"C\": 1}, \"31\": {\"C\": 1}, \"32\": {\"C\": 1}, \"33\": {\"C\": 1}, \"34\": {\"C\": 1}, \"35\": {\"C\": 1}, \"36\": {\"C\": 1}, \"37\": {\"C\": 1}, \"38\": {\"C\": 1}, \"39\": {\"C\": 1}, \"40\": {\"C\": 1}, \"41\": {\"C\": 1}, \"42\": {\"C\": 1}, \"43\": {\"C\": 1}, \"44\": {\"C\": 1}, \"45\": {\"C\": 1}, \"46\": {\"C\": 1}, \"47\": {\"C\": 1}, \"48\": {\"C\": 1}, \"49\": {\"C\": 1}, \"50\": {\"C\": 1}, \"51\": {\"C\": 1}, \"52\": {\"N\": 1}, \"53\": {\"N\": 1}, \"54\": {\"N\": 1}, \"55\": {\"N\": 1}, \"56\": {\"O\": 1}, \"57\": {\"O\": 1}, \"58\": {\"O\": 1}, \"59\": {\"O\": 1}, \"60\": {\"O\": 1}, \"61\": {\"O\": 1}, \"62\": {\"O\": 1}, \"63\": {\"O\": 1}, \"64\": {\"O\": 1}, \"65\": {\"O\": 1}, \"66\": {\"O\": 1}, \"67\": {\"O\": 1}, \"68\": {\"O\": 1}, \"69\": {\"O\": 1}, \"70\": {\"O\": 1}, \"71\": {\"O\": 1}}" energy=-490.6407470703125 free_energy=-490.6407470703125 stress="-0.0074960761703550816 0.0004974501207470894 0.0002096056123264134 0.0004974501207470894 -0.004861860070377588 0.0006655821343883872 0.0002096056123264134 0.0006655821343883872 -0.005239106249064207" pbc="T T T"
Ga      -1.95051324       0.05204434       6.77286152        0       0.04406982      -0.04406547      -0.03885629
Ga       5.35255826       4.30069488       4.01987744        1       0.00664837       0.05500574       0.01827145
P        4.00403280       2.63218734       6.57739583        2      -0.32839018      -0.17147928       0.49272788
P       -0.05133631      -2.56360538       6.56680148        3       0.28535730       0.31350964       0.26641256
P       -0.60117314       1.71916910       4.21040187        4       0.37528068       0.31964871      -0.26927510
P        3.45151736       6.91620198       4.22388363        5      -0.21034920      -0.34663463      -0.18215476
H       -0.48383189       1.46227941       0.90412865        6       0.01449387      -0.03097858      -0.03932090
H        3.30836572       7.15780275       0.88503438        7       0.00216245       0.09574012       0.07694092
H        3.88244845       2.88976164       9.88679174        8       0.00150327       0.07494772       0.00740504
H        0.09868198      -2.80166068       9.90331526        9       0.01232387      -0.04102989       0.05900786
H        2.35164872       4.85670431       9.43134711       10       0.02447614      -0.03784601       0.05660231
H        0.53843686       3.83747880       9.41082866       11       0.03536020       0.11943074       0.03767459
H        1.04996747      -0.50068523       1.36561328       12      -0.03401406      -0.00375726      -0.07882814
H        2.86286410       0.51592470       1.38072826       13       0.04180261       0.02010539      -0.06076909
H        4.18482777      -2.56347479       7.37103448       14      -0.03356183      -0.01959680       0.09607013
H       -0.21238640       2.63352278       7.35915378       15       0.06611602       0.05345485      -0.02138293
H       -0.78079379       6.91827723       3.42050729       16       0.03225448       0.01501754      -0.10051259
H        3.61153577       1.72392713       3.43374774       17      -0.04857132      -0.05553902      -0.04200745
H        0.70919272       3.30455241       2.21247894       18       0.07890619       0.05044724      -0.09866694
H        2.11617101       5.31827900       2.20489373       19      -0.05566925      -0.00432029      -0.01519005
H        2.69702358       1.04847471       8.58376723       20      -0.04720684       0.00925810       0.00140893
H        1.28830273      -0.95997291       8.58286059       21       0.06530356       0.02823656       0.10807389
H       -2.40554366       4.42771683       7.68720880       22       0.12050225       0.11916028       0.30949053
H        5.80823136      -0.07157672       3.10591262       23      -0.13460462      -0.13680370      -0.30464229
H        2.11034617       3.13158714       5.67448012       24      -0.08931414      -0.03060012      -0.06970032
H        0.74902706       5.45275863       5.73175492       25       0.04359122       0.09950891       0.05541350
H        1.29272728       1.22655582       5.11795467       26       0.09201428       0.01849297       0.11530098
H        2.65548565      -1.09596983       5.06166973       27      -0.05162247      -0.09113459      -0.03983637
C       -2.32726257      -0.55332145       9.61145331       28       0.05771029       0.10027350      -0.01318920
C       -1.53304514       0.63754657       9.60420963       29      -0.07651736      -0.06283632       0.34991062
C        5.73382109       4.91083636       1.18338352       30      -0.25350007      -0.36558074      -0.10926897
C        4.93678124       3.71526338       1.18480628       31       0.22156265       0.29188699      -0.08248834
C        0.62225899       3.11893546       0.04481304       32       0.00454061      -0.09776913      -0.00924131
C        2.19664039       5.49673261       0.03634001       33       0.01019902       0.14556712       0.06953923
C        2.78054335       1.23270526      10.74801989       34       0.10178484       0.30704471       0.05765454
C        1.20906364      -1.13876179      10.75298537       35      -0.15176606      -0.31287745       0.06862336
C       -3.48728048      -2.32293231      10.77031182       36       0.00241166       0.06504984       0.13425137
C       -0.37195870       2.41555978      10.76017944       37      -0.01041210      -0.20529231      -0.14460173
C        6.88748394       6.67896032       0.02148544       38       0.00575241      -0.14201829      -0.07991270
C        3.77319886       1.94244725       0.03479482       39       0.06493469       0.22488482      -0.21719137
C        4.02493358      -2.84416594       9.52797276       40      -0.07164907      -0.09403019      -0.38804078
C       -0.04243517       2.92589080       9.51239605       41      -0.04347410      -0.05372728      -0.33400005
C       -0.62008561       7.19711733       1.26441050       42       0.05092353       0.13570243       0.36509830
C        3.44414850       1.43306229       1.27799813       43      -0.06858376      -0.17335017       0.46020764
C        4.43454187      -2.18844396       8.36023316       44      -0.05435603      -0.10133792       0.19677453
C       -0.45953765       2.26493724       8.34680803       45       0.15938535       0.29743844       0.40672070
C       -1.03132855       6.54158501       2.43183866       46       0.09916724       0.18650977      -0.15234475
C        3.86312955       2.08866126       2.44383538       47      -0.07413897      -0.07614323      -0.24199603
C        1.02971295       3.74532422       1.26388671       48      -0.14038308      -0.15733987       0.14933480
C        1.79090471       4.87766711       1.26209811       49       0.13281062       0.07637867      -0.08602494
C        2.37483600       0.61129108       9.52915775       50       0.04902051       0.00570160      -0.08166022
C        1.61098617      -0.52085325       9.53055670       51      -0.06925300      -0.02857712      -0.12330579
N       -2.68321532      -1.06455334       8.40803553       52       0.00895113       0.06558442       0.15642671
N       -1.18170346       1.14957719       8.40523978       53      -0.09874517      -0.26003927      -0.03109857
N        6.08364658       5.42118847       2.38563027       54       0.01990829      -0.08931856      -0.12664300
N        4.58805866       3.20827797       2.39021186       55      -0.03639156       0.02756743      -0.19971132
O        4.20107710       1.12189128       6.80020596       56       0.18695308       0.06190236       0.02017783
O       -0.25837481      -1.07001998       6.80381558       57      -0.20185509       0.00300117       0.00910703
O       -0.79595809       3.23051623       3.99195612       58      -0.20988096      -0.02252959      -0.03376525
O        3.66397997       5.42229505       3.98704898       59       0.15025192       0.06272550      -0.01907170
O        4.52122741       3.46963051       7.74612647       60       0.05307215      -0.03842785      -0.18323965
O       -1.65331881       5.23427710       7.78133823       61      -0.29421490      -0.24454223      -0.03698313
O       -1.11848888       0.89014559       3.04307303       62      -0.11804623      -0.09592471       0.06198499
O        5.05579087      -0.87754671       3.01401348       63       0.28148046       0.25169808       0.00137657
O       -1.64281696       5.55598304       5.21874068       64      -0.15743080      -0.08604296      -0.14572510
O        4.46949089       3.07731749       5.19164852       65       0.15625659       0.07472268      -0.17791426
O        5.04507120      -1.20485525       5.57306937       66       0.14930563       0.08873323       0.13564259
O       -1.06449736       1.28034831       5.60111083       67      -0.18151155      -0.12309973       0.14187258
O        2.38365150       2.82095818       6.55984847       68      -0.04199520      -0.05465501      -0.08163135
O        0.46030701       5.86566400       6.57266986       69       0.18290408      -0.02612205      -0.20538098
O        1.01790009       1.53093680       4.23204135       70       0.06860879       0.04511825       0.01181059
O        2.94008142      -1.51685253       4.22378052       71      -0.17265314       0.01591140       0.16825964
72
Lattice="7.83562571 0.0 0.0 -1.096024111336937 8.618923986944342 0.0 -3.338544415595277 -4.2628534266442175 10.793226200924835" Properties=species:S:1:pos:R:3:spacegroup_kinds:I:1:forces:R:3 spacegroup="P 1" unit_cell=conventional occupancy="_JSON {\"0\": {\"Ga\": 1}, \"1\": {\"Ga\": 1}, \"2\": {\"P\": 1}, \"3\": {\"P\": 1}, \"4\": {\"P\": 1}, \"5\": {\"P\": 1}, \"6\": {\"H\": 1}, \"7\": {\"H\": 1}, \"8\": {\"H\": 1}, \"9\": {\"H\": 1}, \"10\": {\"H\": 1}, \"11\": {\"H\": 1}, \"12\": {\"H\": 1}, \"13\": {\"H\": 1}, \"14\": {\"H\": 1}, \"15\": {\"H\": 1}, \"16\": {\"H\": 1}, \"17\": {\"H\": 1}, \"18\": {\"H\": 1}, \"19\": {\"H\": 1}, \"20\": {\"H\": 1}, \"21\": {\"H\": 1}, \"22\": {\"H\": 1}, \"23\": {\"H\": 1}, \"24\": {\"H\": 1}, \"25\": {\"H\": 1}, \"26\": {\"H\": 1}, \"27\": {\"H\": 1}, \"28\": {\"C\": 1}, \"29\": {\"C\": 1}, \"30\": {\"C\": 1}, \"31\": {\"C\": 1}, \"32\": {\"C\": 1}, \"33\": {\"C\": 1}, \"34\": {\"C\": 1}, \"35\": {\"C\": 1}, \"36\": {\"C\": 1}, \"37\": {\"C\": 1}, \"38\": {\"C\": 1}, \"39\": {\"C\": 1}, \"40\": {\"C\": 1}, \"41\": {\"C\": 1}, \"42\": {\"C\": 1}, \"43\": {\"C\": 1}, \"44\": {\"C\": 1}, \"45\": {\"C\": 1}, \"46\": {\"C\": 1}, \"47\": {\"C\": 1}, \"48\": {\"C\": 1}, \"49\": {\"C\": 1}, \"50\": {\"C\": 1}, \"51\": {\"C\": 1}, \"52\": {\"N\": 1}, \"53\": {\"N\": 1}, \"54\": {\"N\": 1}, \"55\": {\"N\": 1}, \"56\": {\"O\": 1}, \"57\": {\"O\": 1}, \"58\": {\"O\": 1}, \"59\": {\"O\": 1}, \"60\": {\"O\": 1}, \"61\": {\"O\": 1}, \"62\": {\"O\": 1}, \"63\": {\"O\": 1}, \"64\": {\"O\": 1}, \"65\": {\"O\": 1}, \"66\": {\"O\": 1}, \"67\": {\"O\": 1}, \"68\": {\"O\": 1}, \"69\": {\"O\": 1}, \"70\": {\"O\": 1}, \"71\": {\"O\": 1}}" energy=-490.65106201171875 free_energy=-490.65106201171875 stress="-0.007268788758665323 0.0006475712871178985 0.00021239626221358776 0.0006475712871178985 -0.004962841980159283 0.0006580628687515855 0.00021239626221358776 0.0006580628687515855 -0.005119573324918747" pbc="T T T"
Ga      -1.94840988       0.05053677       6.77060689        0       0.02044648      -0.00451628      -0.01122464
Ga       5.35063351       4.30012072       4.02122170        1       0.04196867       0.05407330      -0.00814247
P        4.00131484       2.63170619       6.57570835        2      -0.22421318      -0.10504502       0.49259731
P       -0.05170623      -2.56311867       6.56825868        3       0.35881025       0.22997983       0.19338417
P       -0.59885062       1.72043824       4.21085872        4       0.28712589       0.14867148      -0.30737340
P        3.45020939       6.91450266       4.22303057        5      -0.13709372      -0.26504949      -0.15783949
H       -0.48316235       1.46088069       0.90274708        6      -0.00450522      -0.06583565       0.04226944
H        3.31097838       7.15653475       0.88261976        7       0.01058609       0.12210839       0.08514630
H        3.88464584       2.88903896       9.88425737        8      -0.05034307       0.01419507       0.14298867
H        0.10044365      -2.80246785       9.90259138        9      -0.02850765      -0.08471468      -0.00536250
H        2.35199186       4.85838052       9.42954413       10      -0.04557461      -0.14862974       0.03656700
H        0.54042819       3.83690868       9.41255813       11       0.02121533       0.08188595       0.02179757
H        1.05265977      -0.50231641       1.36571952       12      -0.03118911       0.00366210      -0.07037123
H        2.86197012       0.51668278       1.37787207       13       0.04855576       0.00811828      -0.04350020
H        4.18465393      -2.56468101       7.37344547       14      -0.03621385      -0.01381314       0.03255586
H       -0.20968954       2.63550137       7.35801579       15       0.03244628       0.01359598       0.08498163
H       -0.77789168       6.91577433       3.41840444       16       0.02948063       0.01702336      -0.06436902
H        3.61075559       1.72114253       3.43255277       17      -0.03546057      -0.02300524      -0.08981761
H        0.71149271       3.30264614       2.21020511       18       0.08729769       0.07960896      -0.11336721
H        2.11478451       5.31586530       2.20695781       19      -0.07308777      -0.02024725      -0.08820638
H        2.69968475       1.04889522       8.58624833       20      -0.03430733       0.04173374      -0.10629606
H        1.29116871      -0.96195617       8.58479710       21       0.04494311       0.00097500       0.04750828
H       -2.40288058       4.43058370       7.68971370       22       0.09213233       0.08138021       0.28182384
H        5.80655542      -0.07013187       3.10593065       23      -0.09047881      -0.10031354      -0.28509048
H        2.11229252       3.12898915       5.67622079       24      -0.14899875       0.01604046      -0.19819510
H        0.75094784       5.45192293       5.73437456       25       0.06472092       0.05268653      -0.04079875
H        1.29436578       1.22487631       5.12091084       26       0.03218166       0.08211856      -0.07991961
H        2.65740740      -1.09878501       5.06258962       27      -0.05710810      -0.10039521      -0.06200284
C       -2.32441727      -0.55217817       9.61271326       28      -0.00742744      -0.01225346      -0.09363658
C       -1.53050278       0.63532146       9.60670733       29      -0.04211827       0.06432268       0.24477822
C        5.73610803       4.91053973       1.18256882       30      -0.30216587      -0.37928188      -0.14737280
C        4.93954753       3.71625780       1.18279111       31       0.12469301       0.16236450      -0.07090266
C        0.62524859       3.11759511       0.04366530       32      -0.05255069      -0.14391053       0.04493179
C        2.19896191       5.49740519       0.03861487       33       0.02359711       0.16120729      -0.07972335
C        2.77894870       1.23440346      10.74720130       34       0.08656134       0.24003974       0.02824350
C        1.20668286      -1.14030898      10.75036988       35      -0.09139536      -0.25645539       0.19740275
C       -3.48569793      -2.32568667      10.77194135       36       0.02635664       0.12183802      -0.10117852
C       -0.36998059       2.41618164      10.75764255       37      -0.04092348      -0.28563485      -0.02975994
C        6.88629402       6.67739133       0.02332148       38       0.11710157       0.03276858      -0.22195311
C        3.77100391       1.94102264       0.03261738       39       0.13886684       0.28837496      -0.12997133
C        4.02355583      -2.84623238       9.52601316       40       0.07935400       0.12894672      -0.25730979
C       -0.03979184       2.92301854       9.51036802       41       0.02803379       0.10264157      -0.23634246
C       -0.61932442       7.19693240       1.26660537       42       0.04491754       0.09945972       0.25212759
C        3.44622505       1.43192157       1.27728146       43      -0.12835501      -0.18504800       0.39284104
C        4.43504833      -2.18692581       8.35965495       44      -0.02801866      -0.06902511       0.28630251
C       -0.45761764       2.26662289       8.34907897       45       0.03254525       0.08697226       0.12285506
C       -1.03003549       6.53955901       2.43092843       46       0.11011290       0.22301355      -0.10720720
C        3.86205258       2.08846054       2.44175433       47      -0.00340743      -0.03360870      -0.16492783
C        1.03077098       3.74734499       1.26204181       48      -0.20362315      -0.30351579       0.15602814
C        1.79076254       4.87786923       1.25976534       49       0.20105538       0.16564940       0.11572479
C        2.37339476       0.61326810       9.52704678       50      -0.01125892      -0.12920743       0.09564691
C        1.61040900      -0.52288256       9.53133708       51       0.01672235       0.12565681      -0.18373165
N       -2.68136484      -1.06167995       8.40721628       52      -0.04224093      -0.02787367       0.20194153
N       -1.18389401       1.14794972       8.40462122       53       0.03812176      -0.10105433       0.07173637
N        6.08435774       5.42068913       2.38381166       54       0.01925310      -0.12662898      -0.06811365
N        4.59054855       3.20799019       2.38878703       55      -0.07500295      -0.00702210      -0.23290974
O        4.20375850       1.12443787       6.79752612       56       0.15586160      -0.02353022       0.02447118
O       -0.26066147      -1.07093689       6.80116314       57      -0.17415985       0.02349553       0.03532249
O       -0.79493068       3.22840233       3.99182843       58      -0.21723242       0.06239283      -0.04605450
O        3.66560663       5.42095068       3.98471153       59       0.12748709       0.09768835      -0.00538640
O        4.52025978       3.46797949       7.74376697       60       0.04376695      -0.01816639      -0.16666806
O       -1.65261234       5.23158529       7.78125312       61      -0.25275695      -0.18597381      -0.00477302
O       -1.12103457       0.88730105       3.04398085       62      -0.04589641      -0.00285503       0.14487994
O        5.05815904      -0.87549593       3.01480138       63       0.17947093       0.14072131       0.03276932
O       -1.64127977       5.55396609       5.21984837       64      -0.15989013      -0.08178900      -0.14030036
O        4.47112200       3.07559469       5.18938476       65       0.10594507       0.06314237      -0.13849878
O        5.04351842      -1.20271320       5.57412457       66       0.09813628       0.01826787       0.03296703
O       -1.06350339       1.28088142       5.60291214       67      -0.14050096      -0.09795721       0.08415973
O        2.38266715       2.82310786       6.56084533       68      -0.01173055      -0.10471171       0.01125111
O        0.46328863       5.86528925       6.57259601       69       0.07098919       0.04289880      -0.08943566
O        1.01957488       1.52856029       4.22964595       70       0.12792099      -0.01719557       0.21516363
O        2.93804369      -1.51970521       4.22267611       71      -0.14104433       0.02454472       0.19487080
72
Lattice="7.83562571 0.0 0.0 -1.096024111336937 8.618923986944342 0.0 -3.338544415595277 -4.2628534266442175 10.793226200924835" Properties=species:S:1:pos:R:3:spacegroup_kinds:I:1:forces:R:3 spacegroup="P 1" unit_cell=conventional occupancy="_JSON {\"0\": {\"Ga\": 1}, \"1\": {\"Ga\": 1}, \"2\": {\"P\": 1}, \"3\": {\"P\": 1}, \"4\": {\"P\": 1}, \"5\": {\"P\": 1}, \"6\": {\"H\": 1}, \"7\": {\"H\": 1}, \"8\": {\"H\": 1}, \"9\": {\"H\": 1}, \"10\": {\"H\": 1}, \"11\": {\"H\": 1}, \"12\": {\"H\": 1}, \"13\": {\"H\": 1}, \"14\": {\"H\": 1}, \"15\": {\"H\": 1}, \"16\": {\"H\": 1}, \"17\": {\"H\": 1}, \"18\": {\"H\": 1}, \"19\": {\"H\": 1}, \"20\": {\"H\": 1}, \"21\": {\"H\": 1}, \"22\": {\"H\": 1}, \"23\": {\"H\": 1}, \"24\": {\"H\": 1}, \"25\": {\"H\": 1}, \"26\": {\"H\": 1}, \"27\": {\"H\": 1}, \"28\": {\"C\": 1}, \"29\": {\"C\": 1}, \"30\": {\"C\": 1}, \"31\": {\"C\": 1}, \"32\": {\"C\": 1}, \"33\": {\"C\": 1}, \"34\": {\"C\": 1}, \"35\": {\"C\": 1}, \"36\": {\"C\": 1}, \"37\": {\"C\": 1}, \"38\": {\"C\": 1}, \"39\": {\"C\": 1}, \"40\": {\"C\": 1}, \"41\": {\"C\": 1}, \"42\": {\"C\": 1}, \"43\": {\"C\": 1}, \"44\": {\"C\": 1}, \"45\": {\"C\": 1}, \"46\": {\"C\": 1}, \"47\": {\"C\": 1}, \"48\": {\"C\": 1}, \"49\": {\"C\": 1}, \"50\": {\"C\": 1}, \"51\": {\"C\": 1}, \"52\": {\"N\": 1}, \"53\": {\"N\": 1}, \"54\": {\"N\": 1}, \"55\": {\"N\": 1}, \"56\": {\"O\": 1}, \"57\": {\"O\": 1}, \"58\": {\"O\": 1}, \"59\": {\"O\": 1}, \"60\": {\"O\": 1}, \"61\": {\"O\": 1}, \"62\": {\"O\": 1}, \"63\": {\"O\": 1}, \"64\": {\"O\": 1}, \"65\": {\"O\": 1}, \"66\": {\"O\": 1}, \"67\": {\"O\": 1}, \"68\": {\"O\": 1}, \"69\": {\"O\": 1}, \"70\": {\"O\": 1}, \"71\": {\"O\": 1}}" energy=-490.6541748046875 free_energy=-490.6541748046875 stress="-0.00699528306722641 0.0008095333469100296 0.00015901029109954834 0.0008095333469100296 -0.004737112205475569 0.00032395098241977394 0.00015901029109954834 0.00032395098241977394 -0.005593759007751942" pbc="T T T"
Ga      -1.94735268       0.04869765       6.76917505        0       0.01512680       0.00083586      -0.02135963
Ga       5.34815648       4.29776477       4.01927698        1       0.09170561       0.07690650       0.01772972
P        4.00207994       2.63086835       6.57840132        2      -0.24461406      -0.10421667       0.24781854
P       -0.05183195      -2.56332891       6.57011932        3       0.43824941       0.28009316       0.08277336
P       -0.59606348       1.72005389       4.21017904        4       0.23104823       0.16683310      -0.28194219
P        3.45198613       6.91318347       4.22105212        5      -0.15669972      -0.16917212      -0.08860946
H       -0.48131871       1.45812575       0.90127339        6      -0.03962523      -0.09185016       0.09040672
H        3.30991730       7.15755597       0.88021670        7       0.01876236       0.11275317       0.07218059
H        3.88607688       2.88700008       9.88291511        8      -0.04875786       0.01539543       0.18737632
H        0.10251637      -2.80289749       9.90011053        9      -0.01671794      -0.07754701       0.01316005
H        2.35036221       4.85547640       9.42996544       10       0.03514859      -0.02406832       0.02624969
H        0.54222604       3.83919024       9.41346975       11      -0.01812942       0.02047170       0.00456539
H        1.05551121      -0.50338320       1.36373313       12      -0.05022961       0.00060614      -0.06251350
H        2.86248593       0.51671673       1.37703037       13       0.00616983      -0.04393601      -0.04139255
H        4.18602999      -2.56585560       7.37470724       14      -0.04614472      -0.03842625      -0.02185129
H       -0.20794371       2.63478156       7.36009258       15       0.04115333       0.03418666      -0.02551034
H       -0.77694150       6.91280381       3.42102593       16       0.03560774       0.03379366      -0.09091146
H        3.61351803       1.72158080       3.43496410       17      -0.04006260      -0.01892497      -0.14253190
H        0.71381519       3.30068540       2.20788929       18       0.08073649       0.08579580      -0.11083317
H        2.11310817       5.31306656       2.20425591       19      -0.02088589       0.04035787       0.06891736
H        2.70256866       1.05125604       8.58848564       20      -0.02385030       0.06698035      -0.20287767
H        1.29165096      -0.96348277       8.58584023       21       0.04611737      -0.01143152       0.00939530
H       -2.40095831       4.43199806       7.69187842       22       0.07865845       0.06682990       0.25259659
H        5.80900872      -0.07132058       3.10317341       23      -0.07330113      -0.07401701      -0.25725400
H        2.11276201       3.12684043       5.67358386       24      -0.11245196      -0.02693878      -0.07852890
H        0.74922891       5.45143661       5.73715055       25       0.10004398       0.00509627      -0.13180597
H        1.29389235       1.22350642       5.12121488       26       0.05080449       0.06952459      -0.04398423
H        2.65981588      -1.09882172       5.05964962       27      -0.09388693      -0.03814957       0.06460186
C       -2.32433896      -0.55484296       9.60992336       28       0.05121881       0.06834042       0.02888235
C       -1.53019803       0.63510138       9.60646081       29      -0.04201631       0.04182595       0.22210881
C        5.73724724       4.90977888       1.18409403       30      -0.29293633      -0.35870671      -0.24514861
C        4.93971070       3.71588969       1.18559026       31       0.13568872       0.16142265      -0.32632315
C        0.62811971       3.11525639       0.04422122       32      -0.13336641      -0.18051825      -0.08681606
C        2.20175288       5.49987913       0.03827932       33      -0.11058842      -0.06964407      -0.04869447
C        2.78062486       1.23471465      10.74760945       34       0.05565971       0.21178877      -0.01318947
C        1.20764283      -1.13972933      10.74829190       35      -0.07257157      -0.26920581       0.31828827
C       -3.48718150      -2.32718797      10.77230807       36       0.13507620       0.20711216      -0.19531749
C       -0.36852171       2.41449673      10.75513724       37       0.01972966      -0.14576022      -0.01131535
C        6.88889907       6.67804485       0.02510743       38       0.03423494      -0.06197952      -0.36167488
C        3.77378301       1.94143706       0.03018450       39       0.07085644       0.23376428      -0.02075781
C        4.02556281      -2.84578432       9.52326590       40      -0.04008621      -0.04849038      -0.11805065
C       -0.03906895       2.92319183       9.50752855       41       0.03003374       0.10391648      -0.22596508
C       -0.62105755       7.19780148       1.26712178       42       0.16093849       0.20475951       0.27187651
C        3.44368253       1.43161379       1.27813232       43      -0.04540350      -0.10241012       0.21480511
C        4.43727105      -2.18904229       8.35921578       44      -0.01930973      -0.01936229       0.23436938
C       -0.45847369       2.26512593       8.34677924       45       0.07903412       0.13209431       0.24607632
C       -1.02737130       6.54245172       2.43052095       46      -0.03839109      -0.00468539      -0.02468207
C        3.85963319       2.08609036       2.44037664       47       0.06991434       0.05429440      -0.07953329
C        1.03160698       3.74744660       1.26008984       48      -0.18758923      -0.34629133       0.22864805
C        1.79286003       4.87576990       1.26160181       49       0.19122154       0.21617579      -0.15182284
C        2.37326200       0.61427897       9.52422323       50       0.01939031      -0.14145418       0.30061391
C        1.61316764      -0.52408034       9.53020944       51       0.01502503       0.18698345      -0.19105016
N       -2.68055604      -1.06258034       8.40492183       52      -0.04017092      -0.03927061       0.21818602
N       -1.18332532       1.14626584       8.40304229       53       0.01257448      -0.11385889       0.11152121
N        6.08572633       5.41864948       2.38280648       54       0.12692878       0.05526182       0.01779336
N        4.59212094       3.20672366       2.38582594       55      -0.16447544      -0.10787027      -0.08010107
O        4.20540357       1.12406179       6.79530453       56       0.15687704      -0.05274037       0.04266566
O       -0.25947715      -1.06943817       6.80084021       57      -0.15876377      -0.04047258       0.04580072
O       -0.79427248       3.22930094       3.99411434       58      -0.19967584       0.01843268      -0.05146557
O        3.66752867       5.42163450       3.98647932       59       0.12170298       0.03011730      -0.04609064
O        4.51965727       3.46766750       7.74103699       60       0.07526141       0.03048233      -0.04998037
O       -1.65279660       5.22979209       7.77856023       61      -0.25109130      -0.18054810       0.09364347
O       -1.11923813       0.88784715       3.04254067       62      -0.01456514       0.02214822       0.15599203
O        5.06085518      -0.87275087       3.01740563       63       0.14750084       0.09109183      -0.03256352
O       -1.63875053       5.55341732       5.22040877       64      -0.16697365      -0.08308132      -0.14455122
O        4.47374191       3.07491887       5.18764563       65       0.03945269       0.01667595      -0.00822282
O        5.04636873      -1.20420836       5.57183511       66       0.09634688       0.02099147       0.06135607