66
Lattice="5.06342371 0.0 0.0 0.9190009629923332 11.783733567636794 0.0 1.1031385128479647 1.2587935111460251 13.792978700927721" Properties=species:S:1:pos:R:3:spacegroup_kinds:I:1:forces:R:3 spacegroup="P 1" unit_cell=conventional occupancy="_JSON {\"0\": {\"Cu\": 1}, \"1\": {\"Cu\": 1}, \"2\": {\"H\": 1}, \"3\": {\"H\": 1}, \"4\": {\"H\": 1}, \"5\": {\"H\": 1}, \"6\": {\"H\": 1}, \"7\": {\"H\": 1}, \"8\": {\"H\": 1}, \"9\": {\"H\": 1}, \"10\": {\"H\": 1}, \"11\": {\"H\": 1}, \"12\": {\"H\": 1}, \"13\": {\"H\": 1}, \"14\": {\"C\": 1}, \"15\": {\"C\": 1}, \"16\": {\"C\": 1}, \"17\": {\"C\": 1}, \"18\": {\"C\": 1}, \"19\": {\"C\": 1}, \"20\": {\"C\": 1}, \"21\": {\"C\": 1}, \"22\": {\"C\": 1}, \"23\": {\"C\": 1}, \"24\": {\"C\": 1}, \"25\": {\"C\": 1}, \"26\": {\"C\": 1}, \"27\": {\"C\": 1}, \"28\": {\"C\": 1}, \"29\": {\"C\": 1}, \"30\": {\"C\": 1}, \"31\": {\"C\": 1}, \"32\": {\"C\": 1}, \"33\": {\"C\": 1}, \"34\": {\"C\": 1}, \"35\": {\"C\": 1}, \"36\": {\"C\": 1}, \"37\": {\"C\": 1}, \"38\": {\"C\": 1}, \"39\": {\"C\": 1}, \"40\": {\"C\": 1}, \"41\": {\"C\": 1}, \"42\": {\"N\": 1}, \"43\": {\"N\": 1}, \"44\": {\"N\": 1}, \"45\": {\"N\": 1}, \"46\": {\"Cl\": 1}, \"47\": {\"Cl\": 1}, \"48\": {\"Cl\": 1}, \"49\": {\"Cl\": 1}, \"50\": {\"O\": 1}, \"51\": {\"O\": 1}, \"52\": {\"O\": 1}, \"53\": {\"O\": 1}, \"54\": {\"O\": 1}, \"55\": {\"O\": 1}, \"56\": {\"O\": 1}, \"57\": {\"O\": 1}, \"58\": {\"O\": 1}, \"59\": {\"O\": 1}, \"60\": {\"O\": 1}, \"61\": {\"O\": 1}, \"62\": {\"O\": 1}, \"63\": {\"O\": 1}, \"64\": {\"O\": 1}, \"65\": {\"O\": 1}}" energy=-446.1331787109375 free_energy=-446.1331787109375 stress="0.003382401540875435 -0.0030282121151685715 0.0010358762228861451 -0.0030282121151685715 -0.009973440319299698 -0.004746131133288145 0.0010358762228861451 -0.004746131133288145 -0.002647817600518465" pbc="T T T"
Cu       1.58193286       1.17206716       6.55652647        0       0.28737837      -0.03192396      -0.56762296
Cu       5.47821730      11.89456147       7.32642655        1      -0.09613991      -0.52728271      -0.79308510
H        1.62123335       6.37839204       5.72737419        2       0.07005500      -0.19321167      -0.21798694
H        5.47966856       6.65596862       8.06075353        3      -0.53770822       1.10678256       1.01338124
H        1.30084745       6.15452726       3.25573809        4      -0.37271723       0.49513236      -0.52352130
H        5.80390741       6.88345315      10.57700548        5       0.39687961      -0.54082394       0.38008988
H        3.91830348       2.83408632       3.17467778        6       0.87020981      -1.51768708      -1.06235242
H        3.13553253      10.27914178      10.63369659        7      -0.24902362       0.40631473       0.67073095
H        2.26131133      10.69917413       0.04098911        8      -0.37229881      -0.36276621       0.59705174
H        4.83625544       2.25724680      13.70930886        9       0.69241893       0.19243728      -0.77102274
H        1.89267388       9.97194825      13.70717579       10      -0.13331492       0.30800402       0.96775496
H        5.19823594       3.07655991       0.08260865       11      -0.30207571      -0.12792805       0.72516942
H        4.99379187       8.99175173       4.11783069       12      -0.06428667      -0.05477628      -0.14279819
H        2.17153521       4.05744690       9.69908173       13      -0.18323988      -0.37978804       0.33382592
C        3.00919087       4.72605511       5.72706348       14      -0.51407981       0.11831702       2.39744687
C        4.06874452       8.35109914       8.01939996       15       2.06639457      -1.63113320       0.97150207
C        2.13753628       5.60487681       5.15063561       16      -0.17227089       0.32623118      -1.84761524
C        4.98894151       7.46563114       8.70065859       17      -0.91632545      -0.56281161      -2.53180695
C        1.98181428       5.48062021       3.72734050       18      -0.93022746       1.22823024       2.50055981
C        5.13667471       7.54015629      10.06234587       19       0.27880135       0.44138739      -0.31878781
C        2.59488599       4.48511764       3.05274869       20       1.11682343      -0.79948390      -0.23276186
C        4.50369200       8.56855648      10.73944771       21      -1.28779626       0.51163173       0.95458996
C        3.44457786       3.57811153       3.72097418       22      -1.27761233       0.96544099      -2.25193453
C        3.61559450       9.47007512      10.12877043       23       0.85269237      -0.75803095      -0.90882409
C        3.59441302       3.68910855       5.03132275       24       2.21541595      -1.21032071       3.39889193
C        3.43711622       9.36433441       8.73778044       25       0.33060908      -0.33382499       0.12218709
C        4.46797353       2.60238509       5.78481783       26       1.24374712       2.89935684      -2.35725236
C        2.67982952      10.40091677       8.04747844       27      -1.35754979       2.76000881      -1.40833354
C        1.37575395      11.15190976       4.69725224       28      -3.18516207      -1.80681586      -0.26867032
C        5.69638849       1.92188929       9.10750896       29       1.60877800      -0.95125008      -0.88264048
C        1.21513096      10.52897659       3.37637528       30      -0.24864419      -0.69305873      -2.82953787
C        5.86925597       2.52645455      10.46818088       31       0.56450486       0.01842713      -1.89926219
C        1.81246572      11.01497651       2.15132407       32       0.00525462      -0.04712369       1.84837008
C        5.23978271       1.99886388      11.56531474       33       0.59301209       0.90937233       2.35393763
C        1.74666281      10.30368964       0.94710941       34       0.03539495       1.30625916       0.20275642
C        5.41918980       2.65396160      12.83056320       35      -2.45345950      -2.14072084       0.16149348
C        0.87921034       9.22781296       0.90779278       36       0.71652782      -1.00698292      -2.23274112
C        6.14010499       3.78286935      12.96789399       37       1.86432600       2.09152579      -1.33303213
C        5.32233031       8.74228895       2.04242762       38      -0.71100843      -0.86368752      -1.98176718
C        1.76265014       4.31977505      11.83576160       39      -0.53280109      -2.34514141      -1.29400969
C        5.47258087       9.37613787       3.21294030       40       0.23324023       0.86989450       3.23707891
C        1.66090005       3.62280639      10.57587957       41       0.05640534       1.92732453       1.23966229
N        3.14056687       4.83427122       7.23341281       42       4.26861095      -3.05671787      -1.32881367
N        3.90215035       8.16647317       6.58594504       43      -0.86961138       0.88749003      -0.59337914
N        1.59386646       0.51362393       2.20434361       44       4.25506783      -0.92642343      -1.51686120
N        5.49086628      12.51946832      11.61360449       45      -3.65903711      -0.18935636       0.75507468
Cl       2.43876721       4.39423171       1.35713726       46      -0.05166760      -0.13885072      -0.67419308
Cl       4.62668574       8.63908057      12.47454965       47       0.14182983       0.01376649      -0.14258575
Cl       4.26987802       7.35772114       1.85055462       48       0.18445499       0.13396256       0.40712094
Cl       2.83030715       5.63564810      11.93883955       49       0.16426548       0.62893867       0.11881873
O        3.35694484      11.37539103       7.45373930       50      -0.56557977      -1.23427272       0.87307119
O        3.80829043       1.67760940       6.24960939       51      -1.34726930      -2.29527855       1.56236219
O        0.68175756       2.69824810       5.65854416       52      -1.09110200      -0.48684669       0.44004455
O        6.45963441      10.41822391       8.12678260       53       1.25952768      -0.35150379       0.20538452
O        4.14881181       4.14874059       7.77797193       54      -2.73593402       1.87061453      -1.17593277
O        2.98808741       8.86025065       6.07235283       55       0.23288196      -0.40763921       0.15590636
O        2.39672349       5.56395363       7.80209291       56      -1.45772004       1.39399314       1.72582006
O        4.61452102       7.40241989       5.92149863       57       0.21970814      -0.08527821       0.53615052
O        2.33371889      11.87254567       4.85169120       58       3.49074793       2.69625664       1.10528159
O        4.74365156       1.09847074       8.94414879       59      -0.62773192       0.45215088       0.15922011
O        1.58061121       2.10846067       8.23014135       60      -0.90000433       0.45671618       1.16316652
O        5.51478601      10.89006737       5.54590827       61      -0.19049814       0.11611706       0.62398750
O        1.03953737       1.55402800       2.44499777       62      -1.13727295       0.93482530       0.36986694
O        6.06337281      11.46818904      11.40937038       63       0.93108505      -0.51294249      -0.24868377
O        2.88723554       0.45567457       1.93028364       64      -2.85706258      -0.14415866       0.49324602
O        4.22605864      12.56387383      11.92034234       65       2.14118528       0.24893311      -0.43318537
66
Lattice="5.06342371 0.0 0.0 0.9190009629923332 11.783733567636794 0.0 1.1031385128479647 1.2587935111460251 13.792978700927721" Properties=species:S:1:pos:R:3:spacegroup_kinds:I:1:forces:R:3 spacegroup="P 1" unit_cell=conventional occupancy="_JSON {\"0\": {\"Cu\": 1}, \"1\": {\"Cu\": 1}, \"2\": {\"H\": 1}, \"3\": {\"H\": 1}, \"4\": {\"H\": 1}, \"5\": {\"H\": 1}, \"6\": {\"H\": 1}, \"7\": {\"H\": 1}, \"8\": {\"H\": 1}, \"9\": {\"H\": 1}, \"10\": {\"H\": 1}, \"11\": {\"H\": 1}, \"12\": {\"H\": 1}, \"13\": {\"H\": 1}, \"14\": {\"C\": 1}, \"15\": {\"C\": 1}, \"16\": {\"C\": 1}, \"17\": {\"C\": 1}, \"18\": {\"C\": 1}, \"19\": {\"C\": 1}, \"20\": {\"C\": 1}, \"21\": {\"C\": 1}, \"22\": {\"C\": 1}, \"23\": {\"C\": 1}, \"24\": {\"C\": 1}, \"25\": {\"C\": 1}, \"26\": {\"C\": 1}, \"27\": {\"C\": 1}, \"28\": {\"C\": 1}, \"29\": {\"C\": 1}, \"30\": {\"C\": 1}, \"31\": {\"C\": 1}, \"32\": {\"C\": 1}, \"33\": {\"C\": 1}, \"34\": {\"C\": 1}, \"35\": {\"C\": 1}, \"36\": {\"C\": 1}, \"37\": {\"C\": 1}, \"38\": {\"C\": 1}, \"39\": {\"C\": 1}, \"40\": {\"C\": 1}, \"41\": {\"C\": 1}, \"42\": {\"N\": 1}, \"43\": {\"N\": 1}, \"44\": {\"N\": 1}, \"45\": {\"N\": 1}, \"46\": {\"Cl\": 1}, \"47\": {\"Cl\": 1}, \"48\": {\"Cl\": 1}, \"49\": {\"Cl\": 1}, \"50\": {\"O\": 1}, \"51\": {\"O\": 1}, \"52\": {\"O\": 1}, \"53\": {\"O\": 1}, \"54\": {\"O\": 1}, \"55\": {\"O\": 1}, \"56\": {\"O\": 1}, \"57\": {\"O\": 1}, \"58\": {\"O\": 1}, \"59\": {\"O\": 1}, \"60\": {\"O\": 1}, \"61\": {\"O\": 1}, \"62\": {\"O\": 1}, \"63\": {\"O\": 1}, \"64\": {\"O\": 1}, \"65\": {\"O\": 1}}" energy=-444.03387451171875 free_energy=-444.03387451171875 stress="-0.008591701276600361 -0.002755562076345086 0.0075987051241099834 -0.002755562076345086 -0.016251198947429657 0.0012553957058116794 0.0075987051241099834 0.0012553957058116794 -0.009543308056890965" pbc="T T T"
Cu       1.54406948       1.20714380       6.58600129        0       0.62703240      -0.28520775      -0.58543551
Cu       5.45731593      11.93725580       7.30069871        1       0.27318156      -1.28249919      -0.28226286
H        1.63726178       6.39956409       5.77404444        2       0.77849531      -1.30456245      -1.29826760
H        5.52620404       6.61619714       8.09649614        3      -1.10796499       1.47599721       0.63663179
H        1.27265847       6.12550701       3.27327133        4      -1.35296869       1.36732578      -1.15347338
H        5.78197058       6.83779091      10.55127625        5       0.14559111      -0.08495498       0.08033992
H        3.93227383       2.80726924       3.20935240        6       0.71205288      -1.13874507      -1.10010004
H        3.12401950      10.24005488      10.60130391        7       0.01171155       0.25955576       0.92521083
H        2.22065768      10.64970198       0.08181235        8       0.56651819       0.46677408      -0.92814016
H        4.80765184       2.22846437      13.68541203        9       0.62825215       0.06331293      -0.23998055
H        1.93915358      10.00243408      13.71552043       10      -0.24251923      -0.29903120       0.12858461
H        5.24533049       3.12094079       0.05093488       11      -0.19791789       0.64677471       2.44654560
H        5.03302507       9.02236142       4.09240940       12      -1.16849267      -1.09780574       1.82783508
H        2.20219359       4.03267606       9.66294696       13      -0.70397633      -0.48842549       1.64574826
C        3.04893181       4.74446324       5.75392511       14      -0.50363749      -1.00881565       1.01170719
C        4.02040355       8.31723017       8.05269593       15       1.84153211      -1.01170731      -1.21090150
C        2.17193863       5.59060072       5.13617820       16      -1.38651514       1.65052485      -1.18842363
C        4.96266660       7.44794839       8.66520396       17      -0.15673263      -1.13629532      -1.27031827
C        1.93857962       5.46298262       3.69982065       18       0.98949510      -0.60220510       3.88877439
C        5.13931614       7.54033246      10.03152654       19       1.10057402      -0.92996323      -0.64330029
C        2.54786033       4.43558547       3.02289255       20       1.53214073       0.39545253       2.16556621
C        4.53422406       8.55528322      10.69227618       21      -1.38593698       0.60497540       2.46500540
C        3.47118686       3.60571511       3.70471732       22      -1.14396513       0.17625384      -0.06895074
C        3.64387458       9.43323363      10.12189106       23      -0.53667253       0.86963952      -1.60183632
C        3.63301406       3.67352813       5.06097533       24       0.91591895      -0.30860239       1.45707917
C        3.40617915       9.37540591       8.73656106       25       1.64342117      -2.02113748       0.41562715
C        4.43860200       2.56137433       5.79699235       26       2.93922973       3.91498137      -2.39513063
C        2.72824489      10.41726034       8.02566349       27      -4.67923880       0.61281335       0.28280988
C        1.41856662      11.15892724       4.74679861       28      -5.27412128      -4.03177691      -1.53597105
C        5.65483462       1.94036475       9.15214708       29       2.61843681      -1.97238386      -2.38455844
C        1.19662607      10.49033866       3.37582690       30       1.46322596       0.84695888      -1.61067832
C        5.86813257       2.56809734      10.51447235       31       1.37680352       0.42952949      -4.48648453
C        1.84367364      10.96574390       2.16144409       32      -0.53167582       0.76966417       2.57733202
C        5.28123274       1.99238742      11.54438708       33      -0.80343580      -0.13459985       5.86809158
C        1.74236284      10.30159482       0.95761445       34      -0.23355925       0.32456863       1.26224208
C        5.43601060       2.61546784      12.85962278       35      -0.67025942       0.30359900      -0.89776921
C        0.92169064       9.19729484       0.90960086       36      -0.14940162      -0.85810232      -1.23021495
C        6.18768501       3.81001170      12.99994454       37      -0.26207775      -1.42155313      -2.58529377
C        5.32428659       8.70080829       2.02005855       38       0.37518978       0.32566002      -0.23608428
C        1.79937268       4.33964988      11.88364804       39      -1.06768394      -3.25364876      -2.26337242
C        5.51452994       9.33986755       3.23811102       40       0.10615589       0.43777007      -0.48054862
C        1.68102911       3.65603751      10.61969371       41       0.27473491       1.58245325      -0.23881675
N        3.11221899       4.84830164       7.26785602       42      10.59516525      -8.39674377      -6.27149582
N        3.87725932       8.15600193       6.56278399       43      -0.42824492      -0.28771326      -0.93733335
N        1.62676302       0.47698160       2.24563675       44       1.13763463       1.21780336      -1.21002197
N        5.49747256      12.48630859      11.61429405       45      -2.67424393       1.50587857       0.24700448
Cl       2.46616789       4.38102464       1.38916699       46      -0.30442512      -0.35360211      -2.72191906
Cl       4.60536853       8.60694951      12.45009970       47       0.27843904      -0.02543372      -0.23068519
Cl       4.31177446       7.32160590       1.87567894       48      -0.15726107      -0.20182675       0.16104093
Cl       2.83547830       5.61807266      11.93311973       49       1.17897570       1.93623972       0.39694425
O        3.32107541      11.33278468       7.45641255       50       2.38165116       1.99613738      -1.21395576
O        3.80275823       1.65340599       6.29801244       51      -1.86430621      -2.40972686       1.43734717
O        0.68247690       2.69221914       5.70459243       52      -2.12042427      -0.72753930       0.25998580
O        6.49115591      10.44105679       8.11699033       53       0.77040344      -0.55538416       0.34299690
O        4.17860593       4.18813374       7.77140034       54      -2.72943068       1.46965575      -0.63849771
O        2.95509031       8.82096539       6.03167445       55       0.59177333      -0.37718770       0.45608318
O        2.43710351       5.54274902       7.78731975       56      -7.54767656       7.32047272       6.52436161
O        4.59476225       7.35321619       5.89002320       57      -0.59368527       1.07547307       1.52386117
O        2.35611534      11.86518703       4.89107844       58       4.72463942       3.73453140       1.12949967
O        4.73408325       1.05300538       8.96988210       59       0.32492796       1.95512962       0.66324306
O        1.61657619       2.06701419       8.24848251       60      -2.47947073       0.69862431       2.71555710
O        5.55970764      10.85158498       5.59520191       61      -0.00482452       0.49720797       0.22269100
O        1.02292212       1.55398891       2.45825444       62       0.05201936      -1.42436826       0.05680272
O        6.03648276      11.43564782      11.45101894       63       2.25321627      -1.99131489      -0.48693475
O        2.85712813       0.44333190       1.96937938       64      -0.86600292      -0.18861170       0.27882606
O        4.27161362      12.54958537      11.87942865       65       0.12021005       0.67973876       0.12577999
66
Lattice="5.06342371 0.0 0.0 0.9190009629923332 11.783733567636794 0.0 1.1031385128479647 1.2587935111460251 13.792978700927721" Properties=species:S:1:pos:R:3:spacegroup_kinds:I:1:forces:R:3 spacegroup="P 1" unit_cell=conventional occupancy="_JSON {\"0\": {\"Cu\": 1}, \"1\": {\"Cu\": 1}, \"2\": {\"H\": 1}, \"3\": {\"H\": 1}, \"4\": {\"H\": 1}, \"5\": {\"H\": 1}, \"6\": {\"H\": 1}, \"7\": {\"H\": 1}, \"8\": {\"H\": 1}, \"9\": {\"H\": 1}, \"10\": {\"H\": 1}, \"11\": {\"H\": 1}, \"12\": {\"H\": 1}, \"13\": {\"H\": 1}, \"14\": {\"C\": 1}, \"15\": {\"C\": 1}, \"16\": {\"C\": 1}, \"17\": {\"C\": 1}, \"18\": {\"C\": 1}, \"19\": {\"C\": 1}, \"20\": {\"C\": 1}, \"21\": {\"C\": 1}, \"22\": {\"C\": 1}, \"23\": {\"C\": 1}, \"24\": {\"C\": 1}, \"25\": {\"C\": 1}, \"26\": {\"C\": 1}, \"27\": {\"C\": 1}, \"28\": {\"C\": 1}, \"29\": {\"C\": 1}, \"30\": {\"C\": 1}, \"31\": {\"C\": 1}, \"32\": {\"C\": 1}, \"33\": {\"C\": 1}, \"34\": {\"C\": 1}, \"35\": {\"C\": 1}, \"36\": {\"C\": 1}, \"37\": {\"C\": 1}, \"38\": {\"C\": 1}, \"39\": {\"C\": 1}, \"40\": {\"C\": 1}, \"41\": {\"C\": 1}, \"42\": {\"N\": 1}, \"43\": {\"N\": 1}, \"44\": {\"N\": 1}, \"45\": {\"N\": 1}, \"46\": {\"Cl\": 1}, \"47\": {\"Cl\": 1}, \"48\": {\"Cl\": 1}, \"49\": {\"Cl\": 1}, \"50\": {\"O\": 1}, \"51\": {\"O\": 1}, \"52\": {\"O\": 1}, \"53\": {\"O\": 1}, \"54\": {\"O\": 1}, \"55\": {\"O\": 1}, \"56\": {\"O\": 1}, \"57\": {\"O\": 1}, \"58\": {\"O\": 1}, \"59\": {\"O\": 1}, \"60\": {\"O\": 1}, \"61\": {\"O\": 1}, \"62\": {\"O\": 1}, \"63\": {\"O\": 1}, \"64\": {\"O\": 1}, \"65\": {\"O\": 1}}" energy=-442.61285400390625 free_energy=-442.61285400390625 stress="0.0008185095502994955 -0.004682814236730337 0.0029574993532150984 -0.004682814236730337 -0.011124752461910248 -0.0013416841393336654 0.0029574993532150984 -0.0013416841393336654 -0.017541754990816116" pbc="T T T"
Cu       1.58582620       1.17767536       6.61159188        0       0.20221172      -0.26976487      -0.55487198
Cu       5.42339919      11.94294078       7.29548250        1       0.94713235      -1.46397281       0.10411476
H        1.66018098       6.37121872       5.76380824        2       0.93845022      -1.33685648      -0.99678326
H        5.54509330       6.56673362       8.14035631        3      -0.84227818       1.21925354       0.37122604
H        1.28019857       6.15223047       3.24146973        4      -0.06082855      -0.05518682       0.21375565
H        5.79954441       6.81516242      10.55815161        5       0.88365847      -0.76002932       0.82401419
H        3.91852112       2.76510452       3.25409807        6       0.89111638      -1.28549838      -1.48690414
H        3.13749490      10.19332717      10.58736553        7      -0.81671613       1.38744426       1.79198813
H        2.25511980      10.60539832       0.11974040        8       0.74242646       0.78847653      -1.14726758
H        4.85262352       2.19377995      13.64003258        9       0.74180257       0.24718204      -0.30156118
H        1.93251031       9.95396682      13.75826557       10       0.07625368       0.27675340       0.52577031
H        5.27997079       3.11706866       0.00741577       11       0.25588834       2.11697912       4.72920132
H        5.07075931       9.01908502       4.13596647       12      -0.43775946      -0.59224129       0.55990565
H        2.23666410       4.03260126       9.64953134       13      -1.04800582      -0.44191316       2.07988453
C        3.02330711       4.70576624       5.72487280       14       0.74007583      -1.32722688       4.84338665
C        3.99827525       8.27196095       8.06253814       15       2.75766826      -0.79953504      -0.38646859
C        2.21435367       5.55413071       5.16046778       16      -4.23304558       3.97265553      -2.98575711
C        5.01135645       7.40612465       8.68810466       17      -1.50733304      -0.32360455      -0.98049212
C        1.92495361       5.42941921       3.74546968       18       0.06142981       0.74554634       1.41575527
C        5.17593653       7.49744539      10.05814564       19      -0.82818723       2.01016855      -0.94989181
C        2.52812870       4.42276905       2.99813030       20       2.00218344       0.31048068       4.40837002
C        4.53871201       8.58801786      10.72086207       21       0.98999572      -3.11454225       2.07996893
C        3.47930283       3.61531774       3.66143123       22      -1.12083495       0.31759354       3.08844709
C        3.63236981       9.38608681      10.16862262       23      -0.58629322       1.27773917      -3.29541349
C        3.62183304       3.68372408       5.10022992       24       1.52658653      -2.42359924      -2.80387926
C        3.43573533       9.36292063       8.77318460       25       0.95382184      -2.50598526      -0.69818950
C        4.40356668       2.56773518       5.77752460       26       4.57193661       1.87071323      -0.40482208
C        2.70812071      10.40866609       8.05643604       27      -1.65644491       0.14749904      -0.15226083
C        1.40851606      11.11339514       4.71458837       28      -3.26384521      -1.92268991      -0.54602247
C        5.70281843       1.89770584       9.20104067       29       0.72063023      -1.47986662      -3.61983609
C        1.23514847      10.51693134       3.34502702       30      -0.65617919      -2.07729483      -0.05993824
C        5.89857948       2.57115631      10.48665311       31       0.03695748      -0.89023250      -1.90216660
C        1.87556577      10.93302768       2.18475244       32       0.42788506       3.18814898       2.89008284
C        5.31880520       1.95820386      11.53669734       33      -0.25547534       0.83687866       4.38071346
C        1.75660012      10.33222819       1.00067466       34      -0.96839809      -2.32218790      -0.78891641
C        5.48401518       2.62417145      12.82508108       35      -1.97364187      -1.01033640       0.37873715
C        0.94935952       9.19736243       0.94761203       36      -0.52336454      -1.25062740      -1.43827534
C        6.16687057       3.81679515      13.02529603       37       0.64509058      -2.61887407      -6.63444710
C        5.33523898       8.65808747       2.06210158       38       1.31774592       1.17742014      -1.88110101
C        1.83594312       4.29516048      11.86134396       39      -2.36429882      -2.57957172      -0.14024597
C        5.54850882       9.30734701       3.22473013       40       0.07178062       1.84651399       2.48467326
C        1.66755772       3.68563205      10.61932629       41       1.11147451       0.71319610      -1.83583832
N        3.08087008       4.80291112       7.29347993       42       9.09365845      -6.56167221      -4.56986189
N        3.87890912       8.12372125       6.54549066       43      -0.26292768       0.04596389       0.47563839
N        1.65743264       0.43848754       2.26066657       44       1.68889320       4.02301550      -0.99366325
N        5.50369070      12.43814078      11.61914362       45      -2.73105669       2.60323668       0.68859714
Cl       2.49608172       4.34029465       1.41077881       46      -0.66674572      -0.14416558      -4.47548628
Cl       4.61879177       8.58891763      12.46307798       47       0.27187917       0.12145021       0.23066914
Cl       4.32504905       7.32484482       1.91506926       48      -0.64671552      -0.95372504       0.01840791
Cl       2.82800101       5.57669557      11.96394533       49       1.83894157       2.57345819       0.38381633
O        3.35828049      11.28841934       7.45842305       50       1.75367475       1.88981223      -0.73150802
O        3.84294851       1.60531884       6.32057007       51      -1.99281383      -0.58965635       0.18438384
O        0.70911060       2.66643889       5.74378129       52      -3.62564588      -0.20548683      -0.31788316
O        6.51722683      10.40720357       8.08194999       53      -1.18664742      -0.24017148       0.68952942
O        4.19929746       4.17600836       7.80109882       54      -3.51329494       1.50106311      -1.01810563
O        2.96417468       8.83554037       6.05740163       55       0.95922291      -1.01135767      -0.17148238
O        2.47330738       5.58998749       7.81213597       56      -5.13956690       5.58409309       4.62185574
O        4.63343377       7.31916411       5.91729085       57      -1.21819246       1.37159741       1.04140103
O        2.34795906      11.82793180       4.91066922       58       4.66974115       3.41303873       0.54860419
O        4.69859701       1.06174246       8.98136230       59       1.45918179       1.93969679       0.89233077
O        1.59349948       2.10091054       8.29641193       60      -1.53660655      -0.12934467       1.71680570
O        5.60845170      10.85562504       5.61073364       61      -1.48527443      -0.58023697       0.16056752
O        1.06251765       1.59272962       2.47869742       62       0.82273829      -3.80931640      -0.32600358
O        6.07937907      11.40081058      11.48663277       63       1.23816895      -1.70721447      -0.33712101
O        2.90619785       0.44258144       1.96963946       64      -2.08031654      -0.59791291       0.51272750
O        4.25565132      12.55795526      11.90563107       65       1.81843281      -0.13516916      -0.40286374
66
Lattice="5.06342371 0.0 0.0 0.9190009629923332 11.783733567636794 0.0 1.1031385128479647 1.2587935111460251 13.792978700927721" Properties=species:S:1:pos:R:3:spacegroup_kinds:I:1:forces:R:3 spacegroup="P 1" unit_cell=conventional occupancy="_JSON {\"0\": {\"Cu\": 1}, \"1\": {\"Cu\": 1}, \"2\": {\"H\": 1}, \"3\": {\"H\": 1}, \"4\": {\"H\": 1}, \"5\": {\"H\": 1}, \"6\": {\"H\": 1}, \"7\": {\"H\": 1}, \"8\": {\"H\": 1}, \"9\": {\"H\": 1}, \"10\": {\"H\": 1}, \"11\": {\"H\": 1}, \"12\": {\"H\": 1}, \"13\": {\"H\": 1}, \"14\": {\"C\": 1}, \"15\": {\"C\": 1}, \"16\": {\"C\": 1}, \"17\": {\"C\": 1}, \"18\": {\"C\": 1}, \"19\": {\"C\": 1}, \"20\": {\"C\": 1}, \"21\": {\"C\": 1}, \"22\": {\"C\": 1}, \"23\": {\"C\": 1}, \"24\": {\"C\": 1}, \"25\": {\"C\": 1}, \"26\": {\"C\": 1}, \"27\": {\"C\": 1}, \"28\": {\"C\": 1}, \"29\": {\"C\": 1}, \"30\": {\"C\": 1}, \"31\": {\"C\": 1}, \"32\": {\"C\": 1}, \"33\": {\"C\": 1}, \"34\": {\"C\": 1}, \"35\": {\"C\": 1}, \"36\": {\"C\": 1}, \"37\": {\"C\": 1}, \"38\": {\"C\": 1}, \"39\": {\"C\": 1}, \"40\": {\"C\": 1}, \"41\": {\"C\": 1}, \"42\": {\"N\": 1}, \"43\": {\"N\": 1}, \"44\": {\"N\": 1}, \"45\": {\"N\": 1}, \"46\": {\"Cl\": 1}, \"47\": {\"Cl\": 1}, \"48\": {\"Cl\": 1}, \"49\": {\"Cl\": 1}, \"50\": {\"O\": 1}, \"51\": {\"O\": 1}, \"52\": {\"O\": 1}, \"53\": {\"O\": 1}, \"54\": {\"O\": 1}, \"55\": {\"O\": 1}, \"56\": {\"O\": 1}, \"57\": {\"O\": 1}, \"58\": {\"O\": 1}, \"59\": {\"O\": 1}, \"60\": {\"O\": 1}, \"61\": {\"O\": 1}, \"62\": {\"O\": 1}, \"63\": {\"O\": 1}, \"64\": {\"O\": 1}, \"65\": {\"O\": 1}}" energy=-441.38946533203125 free_energy=-441.38946533203125 stress="0.00020018796203657985 -0.004869814030826092 0.007191744167357683 -0.004869814030826092 -0.010780934244394302 0.0002606642956379801 0.007191744167357683 0.0002606642956379801 -0.016585903242230415" pbc="T T T"