71
Lattice="3.92965014 0.0 0.0 -1.1508096798789433 18.095688717826153 0.0 -3.249770978698195 -9.423815459100501 15.053490768910097" Properties=species:S:1:pos:R:3:spacegroup_kinds:I:1:forces:R:3 spacegroup="P 1" unit_cell=conventional occupancy="_JSON {\"0\": {\"Al\": 1}, \"1\": {\"H\": 1}, \"2\": {\"H\": 1}, \"3\": {\"H\": 1}, \"4\": {\"H\": 1}, \"5\": {\"H\": 1}, \"6\": {\"H\": 1}, \"7\": {\"H\": 1}, \"8\": {\"H\": 1}, \"9\": {\"H\": 1}, \"10\": {\"H\": 1}, \"11\": {\"H\": 1}, \"12\": {\"H\": 1}, \"13\": {\"H\": 1}, \"14\": {\"H\": 1}, \"15\": {\"H\": 1}, \"16\": {\"H\": 1}, \"17\": {\"H\": 1}, \"18\": {\"H\": 1}, \"19\": {\"H\": 1}, \"20\": {\"H\": 1}, \"21\": {\"H\": 1}, \"22\": {\"H\": 1}, \"23\": {\"H\": 1}, \"24\": {\"H\": 1}, \"25\": {\"C\": 1}, \"26\": {\"C\": 1}, \"27\": {\"C\": 1}, \"28\": {\"C\": 1}, \"29\": {\"C\": 1}, \"30\": {\"C\": 1}, \"31\": {\"C\": 1}, \"32\": {\"C\": 1}, \"33\": {\"C\": 1}, \"34\": {\"C\": 1}, \"35\": {\"C\": 1}, \"36\": {\"C\": 1}, \"37\": {\"C\": 1}, \"38\": {\"C\": 1}, \"39\": {\"C\": 1}, \"40\": {\"C\": 1}, \"41\": {\"C\": 1}, \"42\": {\"C\": 1}, \"43\": {\"C\": 1}, \"44\": {\"C\": 1}, \"45\": {\"C\": 1}, \"46\": {\"C\": 1}, \"47\": {\"C\": 1}, \"48\": {\"C\": 1}, \"49\": {\"C\": 1}, \"50\": {\"C\": 1}, \"51\": {\"C\": 1}, \"52\": {\"C\": 1}, \"53\": {\"C\": 1}, \"54\": {\"C\": 1}, \"55\": {\"C\": 1}, \"56\": {\"C\": 1}, \"57\": {\"C\": 1}, \"58\": {\"N\": 1}, \"59\": {\"N\": 1}, \"60\": {\"N\": 1}, \"61\": {\"N\": 1}, \"62\": {\"N\": 1}, \"63\": {\"N\": 1}, \"64\": {\"N\": 1}, \"65\": {\"O\": 1}, \"66\": {\"O\": 1}, \"67\": {\"O\": 1}, \"68\": {\"O\": 1}, \"69\": {\"O\": 1}, \"70\": {\"O\": 1}}" energy=-498.9254455566406 free_energy=-498.9254455566406 stress="-0.0005961277056485415 6.454291724367067e-05 -0.0001644561707507819 6.454291724367067e-05 0.00019801236339844763 6.88707223162055e-05 -0.0001644561707507819 6.88707223162055e-05 0.00027617046725936234" pbc="T T T"
Al      -1.55655236      -4.68836056       7.52702586        0      -0.02139377      -0.01903639      -0.00463103
H       -0.19189729       1.72733343       6.17811564        1       0.02619801      -0.00855324      -0.02783123
H       -0.49634246      -6.93647287      13.58512418        2      -0.00161553       0.02032506       0.02837275
H        0.30211223       9.18076459       2.65881223        3      -0.01348267      -0.00315044       0.01888986
H       -0.47213185      -2.65237733      13.69889268        4       0.00287460      -0.04189235      -0.00582815
H       -0.69050890       6.94087090       6.17066692        5       0.01419863       0.04544614      -0.03578121
H        1.44853031      -0.26347971       2.75360612        6      -0.02064664       0.02879066      -0.02071768
H       -0.66020752      14.67411966       3.42022361        7      -0.01116399      -0.00870165      -0.02016833
H        0.86079682      14.66079597       4.32899377        8       0.00119686       0.02760166      -0.00978896
H        0.76053829      15.52383338       2.77492415        9       0.00125753       0.01881593       0.00473092
H        0.39807900      -0.57157123       8.51417915       10      -0.00078261       0.01095462       0.01917416
H       -1.13978932      -1.26882291       7.98205919       11      -0.00113866       0.00630837      -0.01113458
H       -0.94593496       0.49987433       8.06702161       12      -0.01137809       0.00415883      -0.01314089
H       -1.28758105       7.92272791       8.13265497       13       0.00260926      -0.00450046      -0.01478405
H       -2.27654011       9.39738769       7.97514976       14      -0.03979497       0.01488583      -0.00822185
H       -0.60009930       9.52293098       8.49249037       15       0.01943481      -0.03125358      -0.00584055
H        0.87321013      12.09993458       3.73564350       16       0.00742951      -0.01185739       0.00934837
H       -0.84712605      12.41292383       3.91710149       17       0.00451043      -0.01765250      -0.02776214
H       -0.26438573      11.46327138       2.52538156       18      -0.00299003      -0.01144535      -0.00037593
H       -0.69954190      -1.84943707      10.62207756       19      -0.01992033       0.00010119       0.00638236
H        0.99940435      -2.21593273      10.34583999       20       0.04829123       0.01001310      -0.01989760
H        0.49987523      -1.42428552      11.86106547       21       0.02430325       0.00986941       0.00874789
H        0.09706793      10.64193614      10.71387418       22       0.02568596      -0.01627476      -0.03113111
H       -1.52878065      10.81597764      10.05037675       23      -0.02112408      -0.00206555       0.02428566
H       -1.29509900       9.97828605      11.60495368       24      -0.01075140      -0.00354677       0.00528805
C        0.41830254      -2.88636202       6.47129202       25       0.03970120      -0.04102951       0.06911968
C        0.37325134      -4.69020522       9.59940809       26       0.00792962       0.01201194      -0.09015211
C       -0.73664377      11.60451619       6.49470411       27       0.02975996       0.01306054      -0.01605353
C        0.13062214       0.80161072       5.70170518       28      -0.05788437      -0.02506942       0.03643230
C        0.63734535       0.85406377       4.39769555       29      -0.00794293       0.02062483      -0.00625536
C       -0.33369908      -5.99177247      13.06818803       30       0.01800220       0.03821976      -0.00203799
C       -0.54697211      -4.79719821      13.76901330       31       0.02262025      -0.09679403      -0.02604063
C       -0.13079752       7.94172307       4.35583616       32      -0.00824665       0.01428182      -0.00903484
C       -0.01003024       9.17265773       3.70274722       33      -0.00134080      -0.02000404      -0.00608583
C       -0.33102083      -3.57148946      13.12936103       34       0.00835320       0.06097378       0.03701685
C        0.02714906      -3.51832018      11.78451008       35       0.02617549       0.02484283      -0.04575520
C        0.18532429      -4.73264849      11.08014139       36      -0.00372916      -0.03079815      -0.00172615
C        0.03680802      -5.98003141      11.72412915       37       0.01138462      -0.01934139       0.02086447
C       -0.25919057      10.36970123       4.36899454       38       0.01422615       0.01629718      -0.04341556
C       -0.64183150      10.32450826       5.73308921       39      -0.01240171      -0.00429009      -0.01472290
C       -0.84667960       9.08339661       6.38449995       40       0.01555363      -0.01899552       0.03785078
C       -0.57908806       7.90899308       5.68058398       41      -0.04189208      -0.00989555       0.02148904
C        1.04344028      -0.32460231       3.76200468       42      -0.00484860      -0.06857694       0.02867045
C        0.94542984      -1.55801609       4.40626488       43      -0.00577439       0.03468838      -0.06267475
C        0.45772468      -1.58307782       5.72884105       44       0.01839923      -0.04081321      -0.01474691
C        0.05022622      -0.40820258       6.39137081       45       0.00014909       0.05626391       0.05157271
C        0.42079210       4.41325728       3.73310655       46       0.45656246       0.01369675      -0.51487345
C        1.53667470       3.30002264       1.88051268       47      -0.21898805       0.48814273       0.18461360
C        0.76664002       2.14838363       3.70218183       48      -0.00413043       0.10116893       0.03562319
C        0.25398808       6.69384451       3.66427610       49      -0.01086074       0.02891791      -0.03815553
C        1.25851609       5.71743853       1.85494198       50      -0.08513584      -0.43558100       0.21247631
C        2.19096065       4.58287846       0.09999383       51       0.00431809       0.05740649      -0.00058299
C        0.21413565      15.28044318       3.69487304       52      -0.03575756      -0.05468443       0.01536481
C       -0.43986059      -0.44042406       7.81490863       53       0.02848047      -0.02850488       0.02121662
C       -1.27650964       8.97608253       7.82390154       54       0.01078641       0.04451354       0.02228011
C       -0.12197087      11.65671831       3.59731483       55      -0.01039982       0.05014424       0.03949854
C        0.22281738      -2.18194814      11.11687423       56      -0.02995334       0.00714868      -0.01394574
C       -0.95223635      10.81549442      10.98400846       57       0.00638521       0.01061785      -0.03139118
N        1.07187384       4.47907002       2.48960794       58      -0.06760044      -0.04944056      -0.01993886
N        1.39786648       2.13751155       2.51268694       59       0.02630585      -0.02185148      -0.09434535
N        0.25248054       3.23142349       4.32328235       60      -0.01704999       0.01097947       0.02077588
N       -0.02139673       5.53842262       4.29789387       61      -0.03825597      -0.14056501       0.03256711
N        0.86557624       6.83072574       2.47215959       62       0.00537504       0.01674418      -0.07107225
N        2.11581654       3.37024005       0.67937618       63      -0.03166575      -0.09635728       0.19340819
N        1.82288172       5.75711676       0.64661018       64      -0.01544637       0.04869755       0.11532528
O       -1.67844114      11.78678066       7.33915384       65       0.02185403       0.04280717       0.04060140
O       -0.51148224      -3.71798726       6.21208110       66      -0.01565123      -0.03677536      -0.02169962
O       -0.50462415      -4.02412852       8.94607381       67      -0.01029669       0.03310066       0.01190642
O        0.17430350      12.47557086       6.26184559       68      -0.03879490      -0.00472696       0.02692710
O        1.34148593      -5.31060156       9.05173706       69       0.01545261      -0.03778665      -0.01941073
O        1.33717688      -3.08820545       7.33502748       70      -0.01553437       0.01919048       0.02033186
71
Lattice="3.92965014 0.0 0.0 -1.1508096798789433 18.095688717826153 0.0 -3.249770978698195 -9.423815459100501 15.053490768910097" Properties=species:S:1:pos:R:3:spacegroup_kinds:I:1:forces:R:3 spacegroup="P 1" unit_cell=conventional occupancy="_JSON {\"0\": {\"Al\": 1}, \"1\": {\"H\": 1}, \"2\": {\"H\": 1}, \"3\": {\"H\": 1}, \"4\": {\"H\": 1}, \"5\": {\"H\": 1}, \"6\": {\"H\": 1}, \"7\": {\"H\": 1}, \"8\": {\"H\": 1}, \"9\": {\"H\": 1}, \"10\": {\"H\": 1}, \"11\": {\"H\": 1}, \"12\": {\"H\": 1}, \"13\": {\"H\": 1}, \"14\": {\"H\": 1}, \"15\": {\"H\": 1}, \"16\": {\"H\": 1}, \"17\": {\"H\": 1}, \"18\": {\"H\": 1}, \"19\": {\"H\": 1}, \"20\": {\"H\": 1}, \"21\": {\"H\": 1}, \"22\": {\"H\": 1}, \"23\": {\"H\": 1}, \"24\": {\"H\": 1}, \"25\": {\"C\": 1}, \"26\": {\"C\": 1}, \"27\": {\"C\": 1}, \"28\": {\"C\": 1}, \"29\": {\"C\": 1}, \"30\": {\"C\": 1}, \"31\": {\"C\": 1}, \"32\": {\"C\": 1}, \"33\": {\"C\": 1}, \"34\": {\"C\": 1}, \"35\": {\"C\": 1}, \"36\": {\"C\": 1}, \"37\": {\"C\": 1}, \"38\": {\"C\": 1}, \"39\": {\"C\": 1}, \"40\": {\"C\": 1}, \"41\": {\"C\": 1}, \"42\": {\"C\": 1}, \"43\": {\"C\": 1}, \"44\": {\"C\": 1}, \"45\": {\"C\": 1}, \"46\": {\"C\": 1}, \"47\": {\"C\": 1}, \"48\": {\"C\": 1}, \"49\": {\"C\": 1}, \"50\": {\"C\": 1}, \"51\": {\"C\": 1}, \"52\": {\"C\": 1}, \"53\": {\"C\": 1}, \"54\": {\"C\": 1}, \"55\": {\"C\": 1}, \"56\": {\"C\": 1}, \"57\": {\"C\": 1}, \"58\": {\"N\": 1}, \"59\": {\"N\": 1}, \"60\": {\"N\": 1}, \"61\": {\"N\": 1}, \"62\": {\"N\": 1}, \"63\": {\"N\": 1}, \"64\": {\"N\": 1}, \"65\": {\"O\": 1}, \"66\": {\"O\": 1}, \"67\": {\"O\": 1}, \"68\": {\"O\": 1}, \"69\": {\"O\": 1}, \"70\": {\"O\": 1}}" energy=-498.9306335449219 free_energy=-498.9306335449219 stress="-0.0008039713720791042 0.00010909634147537872 -0.00016726268222555518 0.00010909634147537872 0.00021969132649246603 6.95258640917018e-05 -0.00016726268222555518 6.95258640917018e-05 0.000178197180503048" pbc="T T T"
Al      -1.55722362      -4.68860417       7.52480182        0      -0.00896942       0.00360909       0.00787687
H       -0.19169531       1.72828568       6.17682850        1       0.01337093       0.00195788      -0.01572876
H       -0.49849452      -6.93475230      13.58487827        2       0.00170890       0.02533355       0.01513556
H        0.30045128       9.18039360       2.65837027        3      -0.00185821      -0.00240431      -0.01850636
H       -0.47288654      -2.65268011      13.69744802        4      -0.00260031      -0.00180951       0.01539610
H       -0.69162840       6.94286137       6.16871305        5       0.00637062       0.00122885      -0.01152058
H        1.44713711      -0.26199463       2.75180111        6      -0.02685986       0.02785948      -0.00084428
H       -0.66196316      14.67448019       3.41990709        7      -0.02798314      -0.02222475      -0.02891525
H        0.85867289      14.66230878       4.32721706        8       0.02718064       0.00061587       0.02210061
H        0.75935875      15.52445008       2.77379037        9      -0.01657832       0.00601053       0.02372065
H        0.39632739      -0.57070856       8.51397520       10      -0.00460131       0.00907140       0.01141354
H       -1.14066990      -1.26811297       7.98115451       11      -0.01578531      -0.01156203      -0.00993141
H       -0.94704781       0.50014832       8.06612322       12      -0.01351638       0.00168057      -0.01484621
H       -1.28890788       7.92333563       8.13189763       13       0.00332604       0.01964418      -0.02759408
H       -2.27930854       9.39823774       7.97455935       14       0.00363715       0.00061915      -0.01462796
H       -0.60201888       9.52243873       8.49235615       15       0.03944999      -0.00849008       0.00853124
H        0.87225199      12.10008184       3.73499406       16       0.02434386      -0.00202181       0.01318058
H       -0.84797253      12.41310315       3.91645548       17      -0.00437663      -0.00482257      -0.02287163
H       -0.26512003      11.46374642       2.52478964       18      -0.00075253      -0.00133443       0.00463445
H       -0.70076007      -1.84907861      10.62106460       19      -0.03555039       0.01360828      -0.01122518
H        1.00010005      -2.21509377      10.34440312       20       0.01747320       0.01581200       0.00004660
H        0.49855688      -1.42403727      11.86008092       21       0.02325865       0.01511800       0.00796014
H        0.09606446      10.64156243      10.71211696       22       0.02249792      -0.01564794      -0.03076530
H       -1.53014140      10.81710946      10.04914600       23      -0.02678239      -0.01148757       0.01333185
H       -1.29611602       9.97904833      11.60396931       24      -0.01790805      -0.01760979       0.01047805
C        0.41902909      -2.88551241       6.47015783       25      -0.07627194      -0.04690936      -0.01013182
C        0.37233101      -4.68855843       9.59702297       26       0.00758354      -0.00418279      -0.02891093
C       -0.73695609      11.60690186       6.49461417       27       0.02649516      -0.14225769      -0.11101621
C        0.12828973       0.80168581       5.70150485       28      -0.02390332       0.00672013      -0.02072350
C        0.63625898       0.85459377       4.39702497       29      -0.02230969       0.05990267      -0.00890847
C       -0.33559586      -5.99053781      13.06633647       30       0.02294656       0.00175461      -0.00253737
C       -0.54807248      -4.79691555      13.76695498       31       0.00161274      -0.03374668       0.02828775
C       -0.13229599       7.94277002       4.35454904       32      -0.01247235      -0.01719673      -0.00074335
C       -0.01139481       9.17303194       3.70120889       33      -0.00951881      -0.00198307       0.00849965
C       -0.33231373      -3.57019968      13.12792143       34       0.01933943      -0.00227036      -0.00913134
C        0.02562189      -3.51745622      11.78220976       35       0.01724141       0.04696187      -0.00167771
C        0.18339269      -4.73161150      11.07843830       36       0.01053151      -0.03483105      -0.02980510
C        0.03541566      -5.97869079      11.72232353       37       0.01284273      -0.07044224       0.01147615
C       -0.26043364      10.37044305       4.36623197       38       0.00379688       0.00463442       0.02802846
C       -0.64294483      10.32507040       5.73135024       39       0.00161226       0.05261467      -0.02607297
C       -0.84801390       9.08513748       6.38308639       40       0.01576474      -0.05890717       0.04371108
C       -0.58116098       7.90967500       5.67930784       41      -0.02811089       0.05101660      -0.00687254
C        1.04244896      -0.32381163       3.76102144       42      -0.00189587      -0.03219654      -0.01714835
C        0.94341084      -1.55692993       4.40392270       43       0.00328761      -0.00207832      -0.03539208
C        0.45700479      -1.58174881       5.72650464       44      -0.00215483      -0.05219893       0.03518989
C        0.04880568      -0.40718255       6.39109912       45       0.01362426       0.00976808       0.01624484
C        0.42170968       4.41378997       3.73012292       46       0.37134299       0.02710945      -0.41755006
C        1.53372483       3.30299646       1.87897753       47      -0.18174025       0.30716169       0.21734619
C        0.76457544       2.15110841       3.70042592       48       0.03095277      -0.03701454       0.03970581
C        0.25304319       6.69524468       3.66194373       49      -0.02815974      -0.02869022      -0.00076029
C        1.25606423       5.71491927       1.85402374       50      -0.08465613      -0.26981139       0.22675791
C        2.18955473       4.58442077       0.09924280       51       0.02024040      -0.02795585      -0.00376958
C        0.21199569      15.28007478       3.69402869       52      -0.02765473       0.01491995      -0.03556930
C       -0.44128768      -0.44034106       7.81367463       53       0.04418670      -0.00613154       0.04934905
C       -1.27745258       8.97759563       7.82295026       54      -0.05210704       0.01187496       0.01499866
C       -0.12264172      11.65774497       3.59693215       55      -0.01914863       0.03056585      -0.00039661
C        0.22142019      -2.18052298      11.11488130       56       0.01601057      -0.02248782      -0.01546004
C       -0.95336709      10.81484885      10.98210232       57       0.01418867       0.07554428      -0.00857301
N        1.07014473       4.47892933       2.48812965       58      -0.06470291      -0.00866786      -0.04319763
N        1.39692864       2.13823549       2.51083236       59      -0.00597139       0.03953225      -0.07013655
N        0.25095785       3.23248272       4.32143985       60      -0.01578841       0.04016106       0.02010005
N       -0.02280597       5.53746177       4.29622924       61      -0.00543060      -0.05365078      -0.01979235
N        0.86470896       6.83180159       2.46988505       62      -0.00173666      -0.05529375      -0.05465054
N        2.11482628       3.36892947       0.68001639       63      -0.01865302       0.05983302       0.08650882
N        1.82139728       5.75858043       0.64669967       64       0.00011468      -0.02429555       0.07160899
O       -1.67754322      11.78631285       7.33761453       65      -0.08949035       0.08367027       0.12451951
O       -0.51205037      -3.71819814       6.21019353       66       0.02877015       0.00480891      -0.00180408
O       -0.50447750      -4.02200566       8.94464123       67      -0.05772858       0.04537430      -0.02766331
O        0.17146141      12.47715226       6.26154554       68       0.06672757       0.06857374       0.00895409
O        1.33955337      -5.31002460       9.04987840       69       0.05645018      -0.04422018      -0.03996337
O        1.33605617      -3.08638128       7.33328761       70       0.04544628      -0.00783659       0.07064180
71
Lattice="3.92965014 0.0 0.0 -1.1508096798789433 18.095688717826153 0.0 -3.249770978698195 -9.423815459100501 15.053490768910097" Properties=species:S:1:pos:R:3:spacegroup_kinds:I:1:forces:R:3 spacegroup="P 1" unit_cell=conventional occupancy="_JSON {\"0\": {\"Al\": 1}, \"1\": {\"H\": 1}, \"2\": {\"H\": 1}, \"3\": {\"H\": 1}, \"4\": {\"H\": 1}, \"5\": {\"H\": 1}, \"6\": {\"H\": 1}, \"7\": {\"H\": 1}, \"8\": {\"H\": 1}, \"9\": {\"H\": 1}, \"10\": {\"H\": 1}, \"11\": {\"H\": 1}, \"12\": {\"H\": 1}, \"13\": {\"H\": 1}, \"14\": {\"H\": 1}, \"15\": {\"H\": 1}, \"16\": {\"H\": 1}, \"17\": {\"H\": 1}, \"18\": {\"H\": 1}, \"19\": {\"H\": 1}, \"20\": {\"H\": 1}, \"21\": {\"H\": 1}, \"22\": {\"H\": 1}, \"23\": {\"H\": 1}, \"24\": {\"H\": 1}, \"25\": {\"C\": 1}, \"26\": {\"C\": 1}, \"27\": {\"C\": 1}, \"28\": {\"C\": 1}, \"29\": {\"C\": 1}, \"30\": {\"C\": 1}, \"31\": {\"C\": 1}, \"32\": {\"C\": 1}, \"33\": {\"C\": 1}, \"34\": {\"C\": 1}, \"35\": {\"C\": 1}, \"36\": {\"C\": 1}, \"37\": {\"C\": 1}, \"38\": {\"C\": 1}, \"39\": {\"C\": 1}, \"40\": {\"C\": 1}, \"41\": {\"C\": 1}, \"42\": {\"C\": 1}, \"43\": {\"C\": 1}, \"44\": {\"C\": 1}, \"45\": {\"C\": 1}, \"46\": {\"C\": 1}, \"47\": {\"C\": 1}, \"48\": {\"C\": 1}, \"49\": {\"C\": 1}, \"50\": {\"C\": 1}, \"51\": {\"C\": 1}, \"52\": {\"C\": 1}, \"53\": {\"C\": 1}, \"54\": {\"C\": 1}, \"55\": {\"C\": 1}, \"56\": {\"C\": 1}, \"57\": {\"C\": 1}, \"58\": {\"N\": 1}, \"59\": {\"N\": 1}, \"60\": {\"N\": 1}, \"61\": {\"N\": 1}, \"62\": {\"N\": 1}, \"63\": {\"N\": 1}, \"64\": {\"N\": 1}, \"65\": {\"O\": 1}, \"66\": {\"O\": 1}, \"67\": {\"O\": 1}, \"68\": {\"O\": 1}, \"69\": {\"O\": 1}, \"70\": {\"O\": 1}}" energy=-498.93487548828125 free_energy=-498.93487548828125 stress="-0.0006172767607495189 -8.125448403006885e-06 -0.00027666008099913597 -8.125448403006885e-06 0.00011103510769316927 -2.5347870177938603e-05 -0.00027666008099913597 -2.5347870177938603e-05 0.00037280426477082074" pbc="T T T"
Al      -1.55799829      -4.68776054       7.52408977        0      -0.01910640       0.00312551       0.01816012
H       -0.19250246       1.72837737       6.17626617        1       0.01190384       0.01144867      -0.01105259
H       -0.50087891      -6.93360892      13.58409031        2       0.00384763       0.02752449       0.00997888
H        0.29949240       9.18080492       2.65717202        3      -0.00292538      -0.00389390      -0.01157075
H       -0.47311658      -2.65237446      13.69766246        4      -0.00186639      -0.00528136       0.01084885
H       -0.69218171       6.94317427       6.16780986        5       0.00413690       0.03347498      -0.02801067
H        1.44559443      -0.25979437       2.75046451        6      -0.02169445       0.02316641      -0.00996649
H       -0.66373452      14.67477735       3.41931745        7      -0.01708392      -0.01156211      -0.02710534
H        0.85709816      14.66246737       4.32632202        8       0.02120952       0.00971730       0.02117686
H        0.75852975      15.52461224       2.77288270        9      -0.02551993       0.00041664       0.03256295
H        0.39551757      -0.56971534       8.51325162       10       0.02208082       0.00248149       0.03119163
H       -1.14238630      -1.26754232       7.98027347       11       0.00588185       0.00463238      -0.00748468
H       -0.94844061       0.50113085       8.06536049       12       0.00399459      -0.02235426      -0.01831276
H       -1.29139065       7.92397970       8.13099058       13       0.00484916       0.06132108      -0.04110339
H       -2.28010445       9.39880496       7.97359694       14      -0.04173671       0.02871479      -0.01057751
H       -0.60271616       9.52320925       8.49114276       15       0.02365481      -0.01337441      -0.00452185
H        0.87190658      12.10090442       3.73453522       16       0.00461542      -0.00960795       0.00700337
H       -0.84859972      12.41348906       3.91515253       17      -0.02197215       0.01698373      -0.02097831
H       -0.26548317      11.46396456       2.52443106       18      -0.00587656       0.00150564      -0.03663392
H       -0.70329929      -1.84810289      10.62021414       19      -0.02783233       0.00762804      -0.01134763
H        0.99882352      -2.21445888      10.34381460       20       0.01511506       0.01641832      -0.01139586
H        0.49747991      -1.42303138      11.85886751       21       0.01172488      -0.00611769      -0.01230502
H        0.09478398      10.64188377      10.70995940       22       0.00199081      -0.01009166      -0.02679487
H       -1.53266376      10.81783095      10.04811213       23      -0.02363296      -0.00896166       0.01234941
H       -1.29802799       9.97905970      11.60335753       24      -0.00058260       0.02129728      -0.01858987
C        0.41666013      -2.88604896       6.46942795       25       0.14936870       0.08521676       0.07510959
C        0.37146831      -4.68719397       9.59444075       26      -0.00105138      -0.02848813      -0.02519721
C       -0.73817881      11.60663156       6.49236427       27      -0.04858281      -0.02813491       0.04016131
C        0.12753414       0.80247616       5.70021621       28      -0.03415393      -0.00007613      -0.01978277
C        0.63449417       0.85669438       4.39551084       29      -0.01027230      -0.02312665       0.00911105
C       -0.33740066      -5.98952171      13.06496938       30       0.02407472      -0.05198187      -0.01720798
C       -0.55005896      -4.79731677      13.76577148       31       0.01041618       0.03681944       0.02627027
C       -0.13314807       7.94303866       4.35323825       32      -0.02475211       0.01142237      -0.00350568
C       -0.01248278       9.17338781       3.70028600       33      -0.00892439       0.01558696      -0.01298250
C       -0.33306679      -3.56957498      13.12716152       34       0.01860691      -0.01989932      -0.01386953
C        0.02511833      -3.51638525      11.78096795       35      -0.00955386       0.01105429       0.02662366
C        0.18113806      -4.73118309      11.07727167       36       0.03725883      -0.03094194      -0.07140356
C        0.03410374      -5.97909248      11.72049246       37       0.00015814       0.00231023       0.04221325
C       -0.26241422      10.37193806       4.36409769       38       0.02000088      -0.02624514       0.04113060
C       -0.64378816      10.32648083       5.72916938       39      -0.03511310      -0.00086452       0.00974670
C       -0.85000031       9.08541870       6.38263816       40       0.02933791       0.01366949      -0.02826621
C       -0.58346892       7.91125279       5.67782089       41      -0.01530430      -0.02408330       0.01504492
C        1.04147167      -0.32302950       3.75955187       42      -0.01601797      -0.00021304      -0.00547919
C        0.94271690      -1.55638139       4.40136171       43      -0.03696531       0.02841485       0.06276233
C        0.45513336      -1.58136149       5.72592692       44       0.02939561      -0.05576581      -0.02629333
C        0.04703787      -0.40697595       6.38967039       45       0.02605324       0.01962415       0.03640883
C        0.42335478       4.41258718       3.72716482       46       0.26421538       0.19869831      -0.33144450
C        1.53081957       3.30581138       1.88025497       47      -0.10226239       0.21134557       0.08718788
C        0.76343056       2.15143142       3.69963336       48       0.02225525       0.01187330       0.01464206
C        0.25188585       6.69600900       3.65968490       49      -0.02855222      -0.09464341       0.03301340
C        1.25517143       5.71242369       1.85389829       50      -0.08037215      -0.14573769       0.18357983
C        2.18805029       4.58492705       0.09860700       51       0.03140840      -0.04690382      -0.02671540
C        0.21039143      15.28109204       3.69344946       52      -0.01062346      -0.02435475      -0.07227427
C       -0.44121843      -0.43996770       7.81380573       53      -0.02560197       0.01233593       0.00622441
C       -1.27967259       8.97961180       7.82120884       54       0.00399166      -0.06245387       0.06214194
C       -0.12380488      11.65916662       3.59505577       55       0.02053310       0.01413040       0.03775087
C        0.21929820      -2.18024096      11.11318253       56       0.03327703       0.01831108       0.01265334
C       -0.95501746      10.81633506      10.98057883       57       0.01682753      -0.00987801       0.00196080
N        1.06839619       4.47932728       2.48677305       58      -0.04979997      -0.04046611      -0.03336700
N        1.39580420       2.13928679       2.50966713       59      -0.02081240       0.05082907      -0.03456908
N        0.24903431       3.23477721       4.31909228       60       0.01039885      -0.08551677       0.04044219
N       -0.02368956       5.53718243       4.29395007       61       0.01762288      -0.04879282      -0.04365248
N        0.86406370       6.83068509       2.46813969       62      -0.00041244      -0.03920322      -0.05484422
N        2.11302632       3.37059773       0.68009007       63      -0.03626378       0.03259861       0.12670305
N        1.82090411       5.75832710       0.64659358       64      -0.00784010      -0.00971614       0.07998382
O       -1.68038218      11.78847702       7.33912268       65       0.07632604       0.02474344      -0.02745666
O       -0.51115611      -3.71590551       6.21003213       66      -0.10545043      -0.13260274      -0.03762530
O       -0.50688687      -4.02002943       8.94278481       67       0.00882956       0.01414905       0.00489078
O        0.17255663      12.47670932       6.26238585       68      -0.01377614       0.02194175      -0.01846407