66
Lattice="7.01418957 0.0 0.0 1.8106724771321807 10.027808310667815 0.0 2.4142807340299446 3.3941793576289117 10.410440133252015" Properties=species:S:1:pos:R:3:spacegroup_kinds:I:1:forces:R:3 spacegroup="P 1" unit_cell=conventional occupancy="_JSON {\"0\": {\"Cu\": 1}, \"1\": {\"Cu\": 1}, \"2\": {\"H\": 1}, \"3\": {\"H\": 1}, \"4\": {\"H\": 1}, \"5\": {\"H\": 1}, \"6\": {\"H\": 1}, \"7\": {\"H\": 1}, \"8\": {\"H\": 1}, \"9\": {\"H\": 1}, \"10\": {\"H\": 1}, \"11\": {\"H\": 1}, \"12\": {\"H\": 1}, \"13\": {\"H\": 1}, \"14\": {\"H\": 1}, \"15\": {\"H\": 1}, \"16\": {\"H\": 1}, \"17\": {\"H\": 1}, \"18\": {\"H\": 1}, \"19\": {\"H\": 1}, \"20\": {\"H\": 1}, \"21\": {\"H\": 1}, \"22\": {\"H\": 1}, \"23\": {\"H\": 1}, \"24\": {\"H\": 1}, \"25\": {\"H\": 1}, \"26\": {\"C\": 1}, \"27\": {\"C\": 1}, \"28\": {\"C\": 1}, \"29\": {\"C\": 1}, \"30\": {\"C\": 1}, \"31\": {\"C\": 1}, \"32\": {\"C\": 1}, \"33\": {\"C\": 1}, \"34\": {\"C\": 1}, \"35\": {\"C\": 1}, \"36\": {\"C\": 1}, \"37\": {\"C\": 1}, \"38\": {\"C\": 1}, \"39\": {\"C\": 1}, \"40\": {\"C\": 1}, \"41\": {\"C\": 1}, \"42\": {\"C\": 1}, \"43\": {\"C\": 1}, \"44\": {\"C\": 1}, \"45\": {\"C\": 1}, \"46\": {\"C\": 1}, \"47\": {\"C\": 1}, \"48\": {\"C\": 1}, \"49\": {\"C\": 1}, \"50\": {\"C\": 1}, \"51\": {\"C\": 1}, \"52\": {\"C\": 1}, \"53\": {\"C\": 1}, \"54\": {\"C\": 1}, \"55\": {\"C\": 1}, \"56\": {\"N\": 1}, \"57\": {\"N\": 1}, \"58\": {\"N\": 1}, \"59\": {\"N\": 1}, \"60\": {\"Cl\": 1}, \"61\": {\"Cl\": 1}, \"62\": {\"O\": 1}, \"63\": {\"O\": 1}, \"64\": {\"O\": 1}, \"65\": {\"O\": 1}}" energy=-436.3085632324219 free_energy=-436.3085632324219 stress="-0.0002722476201597601 0.0002976599207613617 -0.0007544310647062957 0.0002976599207613617 -0.00505439005792141 -0.0001258879347005859 -0.0007544310647062957 -0.0001258879347005859 -0.002964435610920191" pbc="T T T"
Cu       5.44509338       3.81404325       0.63740534        0      -0.04733041      -0.24282184       0.39074022
Cu       5.84260120       9.66360362       9.74165965        1      -0.08128880      -0.48799077      -0.52930522
H        9.10823715       8.13621436       8.31749055        2       0.15176564       0.70854914      -0.15708677
H        2.13360048       5.29215311       2.07989017        3       0.20035900      -0.00353733      -0.31040674
H        2.68163629       6.95851625       6.19589414        4       0.15212423       0.24975008      -0.30823809
H        8.53457804       6.41949812       4.15711121        5       0.38468543       0.34989113      -0.47098213
H        2.41224542       4.48555633       6.03053966        6      -0.11817309       0.31524304       0.41318852
H        8.84819391       8.91743170       4.33565554        7       0.04386224       0.24170554       0.02228516
H        3.58695411      12.29149684       7.24883527        8      -0.10086289       0.23618039       0.25419894
H        7.65503760       1.08377114       3.10372723        9       0.06210436       0.42879587       0.15898520
H        9.72841118      11.19123685       9.28606196       10       0.29920071       1.36968923      -0.18385574
H        1.48248576       2.18424329       1.08549749       11       0.09698986       1.88689435      -0.00807957
H        6.36939242       8.00692490       1.29084479       12       0.36536670       1.28962529      -0.48223627
H        4.85795921       5.37510180       9.09739413       13       0.24252838       1.47567606      -0.17826031
H        5.72599839       9.53013743       3.16647879       14       0.49059188       0.23496792      -0.87025356
H        5.51186087       3.84573429       7.20977601       15       0.09609218       0.13621397      -0.13886976
H        4.28173379       1.99575408       2.88756192       16      -0.05822151       0.43513066       0.28993911
H        6.97993980      11.43550138       7.46779988       17      -0.03146596       0.06719706       0.09925976
H        6.92402924       4.72909905       5.16103176       18      -0.44216961      -0.03139354      -0.03101354
H        4.29660678       8.63561141       5.19688749       19       0.76740706       0.17313501       0.25292271
H        5.17480372       4.31041796       5.16635600       20       0.05679764       0.13999450      -0.22745952
H        6.06279107       9.05721032       5.18795099       21       0.24034917       0.46797460      -0.23517631
H        6.29727884       6.83811014       3.80164882       22       0.74088359       0.51422501      -0.68396676
H        4.91953468       6.55037013       6.55085186       23       0.88748276       0.59335411      -0.71845108
H        4.63407637       6.40161959       4.05065435       24      -0.15352765       0.40830129      -0.03987714
H        6.63234641       6.98953291       6.30734426       25       0.56859577      -0.09059381       0.32108590
C        8.96395213       7.08481746       8.20596815       26       0.10333280      -0.24647906      -0.23779589
C        2.33279096       6.36039522       2.14518564       27      -0.63647300      -0.95000970       0.89435798
C        9.30812271       6.38713787       7.02146292       28       0.08696018       2.08355784       0.51840842
C        1.98184238       7.00321947       3.33478444       29      -0.19535451       1.16455615       0.38163888
C        9.15321806       5.05757070       6.94308050       30      -0.04267509      -2.13355637      -0.86336172
C        2.14191213       8.41263871       3.42183569       31      -0.15532514      -1.39915276       0.03207202
C        8.64518670       4.34300424       8.04273191       32      -0.10859447      -1.07351124       0.17465831
C        2.65294757       9.12091295       2.31178872       33       0.00144324       0.07790492       0.20411015
C        8.50366917       2.89505017       8.10565504       34       0.21842852       0.56094038      -0.46741959
C        2.79162105      10.54700978       2.24655170       35      -0.06451432      -0.41642520      -0.26213360
C        9.85623036      12.32492798       9.23790577       36      -0.48581138      -1.59931183       0.37929514
C        1.43607430       1.14419970       1.11398193       37      -0.15875244      -1.86024046       0.26352084
C        7.06432695       9.69172948      -0.01670923       38      -0.10329515      -0.57198882       0.11237873
C        4.23279658       3.78368367      10.36998134       39       0.12988892      -0.94621372      -0.27219570
C        6.54968376       9.12728467       1.17876540       40      -0.16809861      -1.87730956      -0.01253641
C        4.74299302       4.33607652       9.17303714       41      -0.33401918      -2.23236012       0.09996121
C        6.20153877       9.92050795       2.23013010       42      -0.40102661       2.07882309       0.98692238
C        5.09184547       3.45764157       8.13027192       43      -0.04963972       1.68183899       0.21450749
C        4.55871677       1.32593379       2.09380673       44      -0.02409571      -1.81574559       0.11616157
C        6.72607509      12.14268424       8.26344763       45       0.02175964      -1.20928597      -0.61469483
C        7.79923947       4.44968875      10.34964969       46       0.06819363      -0.19636548       0.09296305
C        3.49927328       8.96474767       0.00206186       47      -0.03543229       2.86123776       0.46473199
C        8.30523985       5.07966933       9.18553155       48       0.05785532       1.10250592       0.25745493
C        2.99274112       8.35921463       1.17241709       49      -0.06017984      -0.44905227       0.03592926
C        6.17130516       4.23530467       3.24937131       50      -1.72349095       0.20499040      -0.03398389
C        5.11204202       9.20187840       7.11750724       51      -1.29061270       0.42660958       0.37735629
C        5.96302139       4.84765541       4.60915763       52       0.81205809       1.09800279       0.83797252
C        5.27673517       8.55764756       5.74338291       53      -1.07254362      -0.40678114      -0.06465036
C        5.63270538       6.38388999       4.50024350       54      -0.90689492      -2.00752258       0.61276907
C        5.65749938       7.07966825       5.85099109       55      -1.35477805      -0.51122391       0.59054852
N        8.46430752       6.46204948       9.25745520       56      -0.22548971      -1.31647086      -0.12125704
N        2.83323409       7.00747711       1.11641746       57       0.33389521       0.29151767      -0.48109949
N        5.05963517       1.85619332       0.98914749       58      -0.04562737      -0.00193673      -0.03760552
N        6.22935857      11.60518641       9.36848225       59      -0.06464475      -0.97129875       0.06250912
Cl       6.03242860       5.87755132       0.15629571       60       0.25560334       0.32477471      -0.02849262
Cl       5.21004625       7.49507580      10.25404399       61      -0.07218230       0.30238923      -0.12746038
O        5.08915893       4.28547813       2.51538285       62       0.43699771      -0.03360741      -0.23397925
O        6.18925857       9.15918087       7.83753318       63      -0.58542961       0.17997393       0.32239887
O        7.25699842       3.75609850       2.93129868       64       1.24198377      -0.54336655      -0.40339479
O        3.96319851       9.66804493       7.45933096       65       1.78243423      -0.53656429      -0.39965162
66
Lattice="7.01418957 0.0 0.0 1.8106724771321807 10.027808310667815 0.0 2.4142807340299446 3.3941793576289117 10.410440133252015" Properties=species:S:1:pos:R:3:spacegroup_kinds:I:1:forces:R:3 spacegroup="P 1" unit_cell=conventional occupancy="_JSON {\"0\": {\"Cu\": 1}, \"1\": {\"Cu\": 1}, \"2\": {\"H\": 1}, \"3\": {\"H\": 1}, \"4\": {\"H\": 1}, \"5\": {\"H\": 1}, \"6\": {\"H\": 1}, \"7\": {\"H\": 1}, \"8\": {\"H\": 1}, \"9\": {\"H\": 1}, \"10\": {\"H\": 1}, \"11\": {\"H\": 1}, \"12\": {\"H\": 1}, \"13\": {\"H\": 1}, \"14\": {\"H\": 1}, \"15\": {\"H\": 1}, \"16\": {\"H\": 1}, \"17\": {\"H\": 1}, \"18\": {\"H\": 1}, \"19\": {\"H\": 1}, \"20\": {\"H\": 1}, \"21\": {\"H\": 1}, \"22\": {\"H\": 1}, \"23\": {\"H\": 1}, \"24\": {\"H\": 1}, \"25\": {\"H\": 1}, \"26\": {\"C\": 1}, \"27\": {\"C\": 1}, \"28\": {\"C\": 1}, \"29\": {\"C\": 1}, \"30\": {\"C\": 1}, \"31\": {\"C\": 1}, \"32\": {\"C\": 1}, \"33\": {\"C\": 1}, \"34\": {\"C\": 1}, \"35\": {\"C\": 1}, \"36\": {\"C\": 1}, \"37\": {\"C\": 1}, \"38\": {\"C\": 1}, \"39\": {\"C\": 1}, \"40\": {\"C\": 1}, \"41\": {\"C\": 1}, \"42\": {\"C\": 1}, \"43\": {\"C\": 1}, \"44\": {\"C\": 1}, \"45\": {\"C\": 1}, \"46\": {\"C\": 1}, \"47\": {\"C\": 1}, \"48\": {\"C\": 1}, \"49\": {\"C\": 1}, \"50\": {\"C\": 1}, \"51\": {\"C\": 1}, \"52\": {\"C\": 1}, \"53\": {\"C\": 1}, \"54\": {\"C\": 1}, \"55\": {\"C\": 1}, \"56\": {\"N\": 1}, \"57\": {\"N\": 1}, \"58\": {\"N\": 1}, \"59\": {\"N\": 1}, \"60\": {\"Cl\": 1}, \"61\": {\"Cl\": 1}, \"62\": {\"O\": 1}, \"63\": {\"O\": 1}, \"64\": {\"O\": 1}, \"65\": {\"O\": 1}}" energy=-435.1227722167969 free_energy=-435.1227722167969 stress="0.003920524846762419 0.002026388654485345 -0.0025071906857192516 0.002026388654485345 -0.009866870939731598 -0.004300206899642944 -0.0025071906857192516 -0.004300206899642944 -0.004080511629581451" pbc="T T T"
Cu       5.46028325       3.79721533       0.61083540        0       0.07215510       0.12685090       0.44784454
Cu       5.86995848       9.63679054       9.71581982        1      -0.09038726      -0.39009178      -0.44872665
H        9.11478908       8.10645262       8.29399317        2       0.30267555       1.00201094      -0.33825824
H        2.11051313       5.31953235       2.10770549        3       0.34460878      -0.27127329      -0.61834025
H        2.70931576       6.92954190       6.16639517        4       0.11973388       0.20050156      -0.23428287
H        8.50472214       6.43856210       4.18466577        5       0.86727118       0.58122158      -1.35619330
H        2.39460356       4.47142370       6.01965915        6       0.21034670      -0.18304309      -0.40230864
H        8.81995003       8.88772423       4.30997747        7       0.31603780       0.14604211      -0.37723100
H        3.61255488      12.28918538       7.22113021        8      -0.01093638      -0.12173231      -0.02207610
H        7.63285782       1.05657637       3.08954382        9       0.49993932       0.08360398      -0.58045983
H        9.69879242      11.20740388       9.31532428       10       0.48798230       0.79770082      -0.50564009
H        1.49511940       2.15438630       1.05594343       11       0.13009326       1.92551017      -0.04837459
H        6.33944395       8.02054422       1.31460400       12       0.57284659       0.83317626      -0.78081870
H        4.84896798       5.34511639       9.06771582       13       0.30552626       1.63234997      -0.21057731
H        5.69610465       9.51321433       3.17925512       14       1.02910161       0.53547168      -1.90713739
H        5.53803815       3.81793071       7.18148691       15       0.05855820       0.06542310      -0.06550987
H        4.30897835       1.96613818       2.85804099       16      -0.38613406       1.37593603       1.23574984
H        7.00134980      11.44573170       7.48536588       17       0.22001067      -0.57287580      -0.68728405
H        6.92139901       4.70029252       5.13122565       18       0.34677535      -0.11076224       0.47296405
H        4.32311048       8.62518609       5.17907126       19       0.71845216       0.07792895       0.16472051
H        5.14522310       4.30852897       5.18726903       20       1.13503790       0.60453093      -1.06252611
H        6.09103310       9.02959427       5.16062994       21       0.22584659       0.46016484      -0.20735554
H        6.32009451       6.80821228       3.77228173       22       0.80482221       0.61453348      -0.82414341
H        4.90583370       6.53041545       6.56618815       23       1.62639737       0.86938524      -1.44867253
H        4.62392105       6.37179738       4.02681657       24       0.80262917       0.37139666       0.26533023
H        6.66091731       6.95995174       6.27995129       25       0.49498245      -0.10366854       0.33880800
C        8.99208209       7.05854821       8.17763056       26       0.27493843       0.36005130      -0.60434842
C        2.36176194       6.37496700       2.12887169       27      -1.09831762      -2.10260963       1.18519163
C        9.33744532       6.35764738       6.99567204       28       0.17500091       1.94340456       0.32676700
C        1.99489992       6.98953580       3.31513365       29      -0.48399121       1.65010595       1.38724113
C        9.18227118       5.02823126       6.91600048       30      -0.58330226      -1.62373519       0.01009143
C        2.16888538       8.39109904       3.39264099       31      -0.57193601      -0.83695751       0.62607610
C        8.64820129       4.31487554       8.01320038       32       0.29616082      -0.74175894       0.29403394
C        2.67583384       9.12419631       2.28792785       33       0.04272649      -1.09034288       0.05551556
C        8.53162600       2.86532954       8.08086028       34       0.11157884       1.16536736      -0.53801543
C        2.81919787      10.51893656       2.21686276       35      -0.57714736       0.89937872       0.75048554
C        9.88157451      12.31172053       9.20982474       36      -0.84502512      -1.70329404       0.97660202
C        1.46278500       1.11454436       1.08410924       37      -0.34181207      -1.64543772       0.32881707
C        7.08413166       9.66220494      -0.04619754       38       0.13578224       0.91947287       0.15442380
C        4.23156520       3.75376109      10.34439036       39       0.86057401      -0.66127264      -0.97530800
C        6.57855492       9.11011580       1.15220790       40      -0.69177997      -1.68799496       0.52171713
C        4.76820537       4.30625629       9.14360664       41      -0.73894870      -2.22486329       0.51444066
C        6.20758398       9.89305663       2.20161694       42      -0.50529659       3.19638920       1.65733731
C        5.11560001       3.42779886       8.10310035       43       0.11753355       2.94783306       0.22457382
C        4.58250271       1.34759627       2.06733041       44       0.17207184      -3.78533840      -0.87325287
C        6.75181648      12.14025515       8.25437701       45      -0.22647664      -2.20365095      -0.24287118
C        7.82759064       4.44716013      10.32057346       46      -0.19267356      -0.91598529       0.57373333
C        3.52496068       8.93573420      -0.02629172       47      -0.21784291       3.36857700       0.61998713
C        8.33195333       5.05721811       9.16212579       48       0.07599381       1.86851859       0.03272498
C        3.02257162       8.37454436       1.14313294       49      -0.34443048      -2.27461529       0.51016480
C        6.19767846       4.24993344       3.23972072       50      -3.31889677       0.33157951      -0.05014145
C        5.13968317       9.17514955       7.08956716       51      -2.48947597       1.12917328       1.39014220
C        5.99199742       4.82597007       4.58802876       52      -1.32081461       1.05777836       1.62802148
C        5.30422459       8.52806484       5.71522542       53      -1.18706405      -0.16901328       0.15088372
C        5.66185923       6.35632950       4.47076933       54      -1.98522329      -1.94175136       0.71770078
C        5.68435679       7.04993259       5.82342432       55      -1.99543858      -0.66692263       1.17144656
N        8.49408971       6.48137859       9.22975236       56      -0.64045572      -3.07942247       0.37553513
N        2.86286188       6.98180253       1.09846150       57       0.67581642       1.82941604      -0.82375783
N        5.08729510       1.87565671       0.96270453       58      -0.10140160      -0.73822731      -0.03431195
N        6.25644913      11.57768557       9.34761194       59       0.01047359      -0.93157423      -0.03502546
Cl       6.05783216       5.87281926       0.13881557       60       0.22089770       0.26880300      -0.04586089
Cl       5.19887405       7.51883593      10.28395781       61      -0.07571748       0.13544756      -0.15980738
O        5.11640188       4.30723899       2.48921780       62       0.61564142      -0.10744341      -0.22098976
O        6.21795161       9.13340277       7.80859894       63      -0.85515547       0.16012940       0.08102354
O        7.27127726       3.78185448       2.95413451       64       2.84848499      -1.27625000      -1.12109113
O        3.95804780       9.66763523       7.48451602       65       3.55057645      -1.37325740      -1.33939624
66
Lattice="7.01418957 0.0 0.0 1.8106724771321807 10.027808310667815 0.0 2.4142807340299446 3.3941793576289117 10.410440133252015" Properties=species:S:1:pos:R:3:spacegroup_kinds:I:1:forces:R:3 spacegroup="P 1" unit_cell=conventional occupancy="_JSON {\"0\": {\"Cu\": 1}, \"1\": {\"Cu\": 1}, \"2\": {\"H\": 1}, \"3\": {\"H\": 1}, \"4\": {\"H\": 1}, \"5\": {\"H\": 1}, \"6\": {\"H\": 1}, \"7\": {\"H\": 1}, \"8\": {\"H\": 1}, \"9\": {\"H\": 1}, \"10\": {\"H\": 1}, \"11\": {\"H\": 1}, \"12\": {\"H\": 1}, \"13\": {\"H\": 1}, \"14\": {\"H\": 1}, \"15\": {\"H\": 1}, \"16\": {\"H\": 1}, \"17\": {\"H\": 1}, \"18\": {\"H\": 1}, \"19\": {\"H\": 1}, \"20\": {\"H\": 1}, \"21\": {\"H\": 1}, \"22\": {\"H\": 1}, \"23\": {\"H\": 1}, \"24\": {\"H\": 1}, \"25\": {\"H\": 1}, \"26\": {\"C\": 1}, \"27\": {\"C\": 1}, \"28\": {\"C\": 1}, \"29\": {\"C\": 1}, \"30\": {\"C\": 1}, \"31\": {\"C\": 1}, \"32\": {\"C\": 1}, \"33\": {\"C\": 1}, \"34\": {\"C\": 1}, \"35\": {\"C\": 1}, \"36\": {\"C\": 1}, \"37\": {\"C\": 1}, \"38\": {\"C\": 1}, \"39\": {\"C\": 1}, \"40\": {\"C\": 1}, \"41\": {\"C\": 1}, \"42\": {\"C\": 1}, \"43\": {\"C\": 1}, \"44\": {\"C\": 1}, \"45\": {\"C\": 1}, \"46\": {\"C\": 1}, \"47\": {\"C\": 1}, \"48\": {\"C\": 1}, \"49\": {\"C\": 1}, \"50\": {\"C\": 1}, \"51\": {\"C\": 1}, \"52\": {\"C\": 1}, \"53\": {\"C\": 1}, \"54\": {\"C\": 1}, \"55\": {\"C\": 1}, \"56\": {\"N\": 1}, \"57\": {\"N\": 1}, \"58\": {\"N\": 1}, \"59\": {\"N\": 1}, \"60\": {\"Cl\": 1}, \"61\": {\"Cl\": 1}, \"62\": {\"O\": 1}, \"63\": {\"O\": 1}, \"64\": {\"O\": 1}, \"65\": {\"O\": 1}}" energy=-433.65997314453125 free_energy=-433.65997314453125 stress="0.0034770260099321604 0.006268841680139303 -0.004695049021393061 0.006268841680139303 -0.016050100326538086 -0.011462854221463203 -0.004695049021393061 -0.011462854221463203 -0.004439308308064938" pbc="T T T"
Cu       5.48532826       3.77027989       0.58274673        0       0.12309485       0.10044374       0.45549661
Cu       5.89636610       9.60855366       9.68865499        1      -0.14851251      -0.48278257      -0.38307112
H        9.14185155       8.08048331       8.26561585        2       0.27813810       0.82979339      -0.37895378
H        2.08364901       5.31986149       2.08189267        3       0.39209050      -0.80051529      -0.74428445
H        2.72691425       6.90973146       6.13740684        4      -0.29711425      -0.27034831       0.54954195
H        8.47531255       6.41390936       4.20139984        5       1.33116651       0.90330148      -2.17578244
H        2.41389212       4.47981488       6.00879938        6       0.49756610      -0.79854459      -1.44829464
H        8.79096060       8.85883678       4.28130875        7       0.64567798      -0.02258256      -0.77988553
H        3.58479560      12.30136626       7.21701954        8       0.55093694      -1.32563996      -1.72374868
H        7.60342776       1.02702736       3.06066873        9       0.84667128      -0.14879948      -0.98528457
H        9.66963845      11.23599687       9.34097689       10       0.48740172      -0.53523022      -0.75818616
H        1.48386388       2.12442543       1.02595185       11       0.15713832       2.05060363      -0.08511541
H        6.31072783       8.01696425       1.34325552       12       0.79685134       0.64459038      -1.14208400
H        4.82877336       5.31565129       9.03790047       13       0.37769267       1.79842675      -0.28116953
H        5.66671305       9.49015099       3.20666008       14       1.68631291       0.80531204      -2.98742723
H        5.56318617       3.79387857       7.15172064       15       0.01324268       0.00999863      -0.01605929
H        4.33039589       1.93633954       2.83922461       16      -0.26731911       1.16074276       0.87619251
H        7.02794457      11.45309923       7.45878597       17       0.39297092      -1.33433890      -1.27594483
H        6.89215185       4.67032126       5.10136239       18       1.37000644      -0.26988542       1.14032829
H        4.33264542       8.59979370       5.14925129       19       1.13203406       0.00016151       0.33655667
H        5.11670870       4.28268654       5.18133014       20       1.64813995       0.86107701      -1.49748993
H        6.11428972       8.99983392       5.13303483       21       0.35425150       0.53405523      -0.30783698
H        6.34967262       6.77999281       3.74390257       22       0.74174941       0.56467408      -0.81471628
H        4.88262822       6.50053868       6.53644482       23       2.12129235       1.03144693      -1.59637177
H        4.61340365       6.34208434       3.99690523       24       1.64061058       0.41200593       0.54618657
H        6.65872026       6.93122972       6.25076063       25       1.63623142      -0.26286265       0.97616744
C        9.01072344       7.02863688       8.15004532       26       0.18101573       1.10513330      -0.10858675
C        2.39021426       6.34637987       2.10053492       27      -1.36584282      -1.63430297       1.42466617
C        9.33327585       6.32817232       6.99396237       28       1.10169756       2.56710267      -1.59202552
C        2.00476182       6.95998137       3.28569190       29      -0.61533499       1.51704037       1.96947002
C        9.21034129       5.00509134       6.88628929       30      -1.09371412      -1.47027421       1.28478217
C        2.19859119       8.36185823       3.36561104       31      -1.09336448      -0.76336557       1.11175990
C        8.67801200       4.28642709       7.98529325       32       0.31947914      -0.79917455       0.27624574
C        2.70409738       9.09477280       2.26417109       33       0.14448392      -1.11599302      -0.13103119
C        8.55700859       2.83800389       8.05259663       34      -0.42519689       2.15405035       1.03280640
C        2.84744118      10.48907186       2.18866271       35      -0.95390356       1.14837754       1.13041627
C        9.90933001      12.28212006       9.18142696       36      -0.95703071      -0.46722642       1.20176017
C        1.49133786       1.08687684       1.05556804       37      -0.50696754      -1.74346590       0.47297472
C        7.10998504       9.63248909      -0.07555202       38       0.28573614       1.11766195       0.13752857
C        4.25474827       3.72834571      10.31629955       39       1.08106625      -0.66234326      -1.12834096
C        6.60727830       9.08179569       1.12290892       40      -1.03968263      -1.70139897       0.94278085
C        4.79719165       4.27773814       9.11387981       41      -0.96744937      -2.29771423       0.73094457
C        6.23741637       9.86410793       2.17203376       42      -1.08748126       3.21344233       2.63687992
C        5.14190891       3.39864275       8.07464144       43       0.14346641       2.94219661       0.20433021
C        4.61168294       1.31790667       2.03788213       44       0.06762046      -3.50678444      -0.49962416
C        6.77927659      12.11160001       8.22650605       45      -0.58046955      -1.65799546       0.93229038
C        7.85721741       4.41863589      10.29247952       46      -0.20003167      -0.95726985       0.58721799
C        3.55463821       8.90930242      -0.05593532       47      -0.48806193       3.70162678       1.42577016
C        8.36062262       5.02724929       9.13293624       48       0.07885933       1.98881996       0.11474258
C        3.04599273       8.34603520       1.11387143       49      -0.22446644      -2.22651100       0.67680740
C        6.22693041       4.22448015       3.21682481       50      -6.14944506       1.52091694       0.81191641
C        5.16556070       9.14831306       7.05968615       51      -2.80687428       1.26612270       1.75143814
C        5.99966457       4.79635547       4.56036414       52      -2.95766687       1.06203067       1.69873834
C        5.33262777       8.49981284       5.68577735       53      -1.71018076      -0.16466978       0.21873370
C        5.69030555       6.32689467       4.44217979       54      -2.84667730      -1.79422760       0.68484759
C        5.71418820       7.02081334       5.80847171       55      -3.71371603      -0.71915770       0.34576437
N        8.52317594       6.45553755       9.20044774       56      -0.88842434      -3.38010645       0.89569080
N        2.89238753       6.95343065       1.06937421       57       0.64155984       1.82687521      -0.72658092
N        5.11625824       1.84734269       0.93288866       58      -0.12415574      -0.71373945       0.02731431
N        6.28576414      11.55089956       9.34277997       59       0.51831436      -1.16944325      -1.57483530
Cl       6.08730343       5.84444054       0.11088487       60       0.19919080       0.26550403      -0.05031903
Cl       5.16923647       7.48936321      10.30931945       61      -0.02038416       0.23522115      -0.23842481
O        5.14505504       4.27894264       2.45942613       62       0.69068915      -0.25366014      -0.40043908
O        6.24749425       9.10446093       7.78183050       63      -1.19467044       0.21105655      -0.06655020
O        7.29623508       3.81036785       2.98395273       64       5.78747845      -2.49906778      -2.14315844
O        3.95973458       9.64025403       7.46651529       65       4.26221371      -1.60038996      -1.56746686
66
Lattice="7.01418957 0.0 0.0 1.8106724771321807 10.027808310667815 0.0 2.4142807340299446 3.3941793576289117 10.410440133252015" Properties=species:S:1:pos:R:3:spacegroup_kinds:I:1:forces:R:3 spacegroup="P 1" unit_cell=conventional occupancy="_JSON {\"0\": {\"Cu\": 1}, \"1\": {\"Cu\": 1}, \"2\": {\"H\": 1}, \"3\": {\"H\": 1}, \"4\": {\"H\": 1}, \"5\": {\"H\": 1}, \"6\": {\"H\": 1}, \"7\": {\"H\": 1}, \"8\": {\"H\": 1}, \"9\": {\"H\": 1}, \"10\": {\"H\": 1}, \"11\": {\"H\": 1}, \"12\": {\"H\": 1}, \"13\": {\"H\": 1}, \"14\": {\"H\": 1}, \"15\": {\"H\": 1}, \"16\": {\"H\": 1}, \"17\": {\"H\": 1}, \"18\": {\"H\": 1}, \"19\": {\"H\": 1}, \"20\": {\"H\": 1}, \"21\": {\"H\": 1}, \"22\": {\"H\": 1}, \"23\": {\"H\": 1}, \"24\": {\"H\": 1}, \"25\": {\"H\": 1}, \"26\": {\"C\": 1}, \"27\": {\"C\": 1}, \"28\": {\"C\": 1}, \"29\": {\"C\": 1}, \"30\": {\"C\": 1}, \"31\": {\"C\": 1}, \"32\": {\"C\": 1}, \"33\": {\"C\": 1}, \"34\": {\"C\": 1}, \"35\": {\"C\": 1}, \"36\": {\"C\": 1}, \"37\": {\"C\": 1}, \"38\": {\"C\": 1}, \"39\": {\"C\": 1}, \"40\": {\"C\": 1}, \"41\": {\"C\": 1}, \"42\": {\"C\": 1}, \"43\": {\"C\": 1}, \"44\": {\"C\": 1}, \"45\": {\"C\": 1}, \"46\": {\"C\": 1}, \"47\": {\"C\": 1}, \"48\": {\"C\": 1}, \"49\": {\"C\": 1}, \"50\": {\"C\": 1}, \"51\": {\"C\": 1}, \"52\": {\"C\": 1}, \"53\": {\"C\": 1}, \"54\": {\"C\": 1}, \"55\": {\"C\": 1}, \"56\": {\"N\": 1}, \"57\": {\"N\": 1}, \"58\": {\"N\": 1}, \"59\": {\"N\": 1}, \"60\": {\"Cl\": 1}, \"61\": {\"Cl\": 1}, \"62\": {\"O\": 1}, \"63\": {\"O\": 1}, \"64\": {\"O\": 1}, \"65\": {\"O\": 1}}" energy=-431.4478454589844 free_energy=-431.4478454589844 stress="0.003045524936169386 0.01035262644290924 -0.006594703067094088 0.01035262644290924 -0.0200180783867836 -0.016334550455212593 -0.006594703067094088 -0.016334550455212593 -0.0038940913509577513" pbc="T T T"