90
Lattice="9.89404745 0.0 0.0 -0.35029249537052476 10.884222727784724 0.0 0.516845441237713 -0.5811990668417291 23.61616757995776" Properties=species:S:1:pos:R:3:spacegroup_kinds:I:1:forces:R:3 spacegroup="P 1" unit_cell=conventional occupancy="_JSON {\"0\": {\"Zn\": 1}, \"1\": {\"Zn\": 1}, \"2\": {\"H\": 1}, \"3\": {\"H\": 1}, \"4\": {\"H\": 1}, \"5\": {\"H\": 1}, \"6\": {\"H\": 1}, \"7\": {\"H\": 1}, \"8\": {\"H\": 1}, \"9\": {\"H\": 1}, \"10\": {\"H\": 1}, \"11\": {\"H\": 1}, \"12\": {\"H\": 1}, \"13\": {\"H\": 1}, \"14\": {\"H\": 1}, \"15\": {\"H\": 1}, \"16\": {\"H\": 1}, \"17\": {\"H\": 1}, \"18\": {\"H\": 1}, \"19\": {\"H\": 1}, \"20\": {\"H\": 1}, \"21\": {\"H\": 1}, \"22\": {\"H\": 1}, \"23\": {\"H\": 1}, \"24\": {\"H\": 1}, \"25\": {\"H\": 1}, \"26\": {\"H\": 1}, \"27\": {\"H\": 1}, \"28\": {\"H\": 1}, \"29\": {\"H\": 1}, \"30\": {\"C\": 1}, \"31\": {\"C\": 1}, \"32\": {\"C\": 1}, \"33\": {\"C\": 1}, \"34\": {\"C\": 1}, \"35\": {\"C\": 1}, \"36\": {\"C\": 1}, \"37\": {\"C\": 1}, \"38\": {\"C\": 1}, \"39\": {\"C\": 1}, \"40\": {\"C\": 1}, \"41\": {\"C\": 1}, \"42\": {\"C\": 1}, \"43\": {\"C\": 1}, \"44\": {\"C\": 1}, \"45\": {\"C\": 1}, \"46\": {\"C\": 1}, \"47\": {\"C\": 1}, \"48\": {\"C\": 1}, \"49\": {\"C\": 1}, \"50\": {\"C\": 1}, \"51\": {\"C\": 1}, \"52\": {\"C\": 1}, \"53\": {\"C\": 1}, \"54\": {\"C\": 1}, \"55\": {\"C\": 1}, \"56\": {\"C\": 1}, \"57\": {\"C\": 1}, \"58\": {\"C\": 1}, \"59\": {\"C\": 1}, \"60\": {\"C\": 1}, \"61\": {\"C\": 1}, \"62\": {\"C\": 1}, \"63\": {\"C\": 1}, \"64\": {\"C\": 1}, \"65\": {\"C\": 1}, \"66\": {\"C\": 1}, \"67\": {\"C\": 1}, \"68\": {\"C\": 1}, \"69\": {\"C\": 1}, \"70\": {\"N\": 1}, \"71\": {\"N\": 1}, \"72\": {\"N\": 1}, \"73\": {\"N\": 1}, \"74\": {\"O\": 1}, \"75\": {\"O\": 1}, \"76\": {\"O\": 1}, \"77\": {\"O\": 1}, \"78\": {\"O\": 1}, \"79\": {\"O\": 1}, \"80\": {\"O\": 1}, \"81\": {\"O\": 1}, \"82\": {\"O\": 1}, \"83\": {\"O\": 1}, \"84\": {\"O\": 1}, \"85\": {\"O\": 1}, \"86\": {\"O\": 1}, \"87\": {\"O\": 1}, \"88\": {\"O\": 1}, \"89\": {\"O\": 1}}" energy=-613.3056030273438 free_energy=-613.3056030273438 stress="0.0005963664152659476 0.0003305880818516016 0.00011036311479983851 0.0003305880818516016 0.00021258245396893471 -0.00023603586305398494 0.00011036311479983851 -0.00023603586305398494 -0.000563327397685498" pbc="T T T"
Zn       6.51091265       4.96838942      11.62855047        0       0.03019124       0.01884497       0.03694438
Zn       3.74636083       4.98549704      12.10461900        1      -0.29358220       0.01846794       0.00717536
H        7.31065894       7.43834443      22.40411781        2      -0.01596057      -0.02051634      -0.01063898
H        7.67526493       4.03194413      16.03985405        3       0.00534619       0.00011028      -0.01225158
H        3.46502036       4.84463754      16.13880198        4      -0.01273042      -0.00072586       0.00280048
H        3.52608914       4.87940796      18.64613229        5      -0.04944077      -0.02441415       0.00216251
H        5.69992270       0.43140457      10.88862132        6       0.10856036       0.05611120       0.06771052
H        3.11955921       9.14099896      12.76211351        7       0.03617992      -0.04219608       0.08668342
H        6.10570932       9.47046094      12.08985794        8      -0.01073661      -0.00629552      -0.06747719
H        8.62743017       4.16749871      13.37144599        9      -0.06388064      -0.00332186      -0.00956817
H        9.12969126       5.32374176      10.74444797       10       0.11070363       0.01596979      -0.04307625
H        6.51058214       8.21723338       1.29200186       11       0.00879861       0.02114521       0.04829434
H        5.62151184       3.76009022       5.09841746       12       0.00774355      -0.04389650      -0.00660609
H        5.71945010       3.81364362       7.59461424       13      -0.00016114       0.01007602      -0.02502150
H        3.21594413       7.32459337       5.15331438       14       0.00665224       0.00493255      -0.02531102
H        7.73666845       3.99894599      18.54418999       15       0.06849211       0.01115636       0.02432004
H        4.19656499      -0.12309635      15.17642242       16      -0.03832862       0.00993049      -0.02625201
H        4.89129802       1.47533535      14.84076120       17       0.03260908       0.04129345       0.00764413
H        3.28456483       1.35295276      15.57695447       18       0.00940704      -0.00025063      -0.03686759
H        3.07345353       1.92287531      13.14617225       19      -0.02224277       0.01631670       0.01779762
H        2.39035271       0.31744406      13.46263420       20      -0.03006469       0.00963201       0.05318775
H        0.51870849       3.80245279      14.45309957       21       0.14113790       0.00119660       0.07386722
H        2.10846911       5.57342706      10.14844665       22      -0.25274292      -0.01234227      -0.00169450
H        2.64400185       2.68769442       2.38801188       23      -0.03046843      -0.08981975      -0.17293100
H        3.69471160       1.72575889      21.36223972       24      -0.06923217      -0.03724868       0.17379928
H        4.77246449       8.29775492       9.10800633       25       0.00826532      -0.01632608       0.04205373
H        4.74057096       9.15333125       7.55016781       26      -0.01183461      -0.00790133       0.00407883
H        3.59163060       9.59301031       8.83981611       27       0.02761519      -0.04959497      -0.00026885
H        2.42837070       8.23471301       7.09751523       28      -0.00775224       0.04646501       0.01635831
H        2.47493955       7.36948420       8.63672460       29       0.00370776       0.00786499       0.03856860
C        5.14815265       7.51140737      12.27179021       30       0.07366025       0.09777504       0.01980669
C        6.73223749       6.70497897      22.96674483       31       0.01360110      -0.04630102      -0.22118992
C        6.05609200       7.39878543       0.73697299       32      -0.08043692      -0.09631833       0.14009586
C        5.30952281       6.44750261       1.43660377       33       0.06510472       0.09520184       0.04639873
C        4.70711510       5.37179547       0.75473466       34      -0.01307151      -0.05714276      -0.08551048
C        3.94088647       4.40051737       1.45226440       35      -0.02996199      -0.02959794       0.03430256
C        3.33836633       3.32822484       0.77642964       36       0.08171806       0.01356056      -0.18210012
C        4.02464550       2.62695543      22.96542714       37       0.07939360       0.21042508       0.19177112
C        5.17423337       6.56292356       2.90505233       38      -0.07496607       0.00681504       0.25832462
C        3.78288826       4.49258945       2.89510310       39      -0.01519632      -0.03760200       0.06370874
C        5.11075239       4.54000456       5.66017388       40      -0.00710092      -0.06053594       0.00524964
C        4.66169820       5.49756281       9.25994616       41       0.05830698      -0.02062576       0.03006509
C        5.15798830       4.56961851       7.04513186       42      -0.00221733       0.06217863       0.05036202
C        4.49418886       5.57045682       7.77645824       43       0.03982152      -0.05079941      -0.03723995
C        3.76597035       6.57672202       7.10189276       44       0.13795869      -0.18657261       0.03346108
C        3.74440158       6.54227724       5.69979199       45       0.01165310       0.08627702       0.04307361
C        4.40543849       5.54161728       4.99594913       46      -0.02527338       0.05898470       0.02650794
C        6.80653589       4.18676557      18.01243136       47      -0.02410734       0.07881034      -0.08079922
C        6.76732806       4.20496460      16.61641692       48       0.00387754      -0.00368485       0.05122824
C        5.56257172       4.43974485      15.94203883       49       0.05463884       0.01031210      -0.10302266
C        4.39294095       4.66481137      16.67907918       50      -0.02883261       0.02294298       0.05729242
C        4.42718407       4.67808964      18.06887931       51      -0.01639412      -0.04434471      -0.02438471
C        5.07090610       2.44529609      11.46146896       52       0.05557930       0.02686390       0.10419896
C        5.63381801       4.43296943      18.72640154       53       0.00895800      -0.01811193      -0.07622559
C        4.25324672       0.26903204      12.42664427       54      -0.02195500      -0.13785538      -0.07750542
C        5.00519470       0.96366008      11.54172721       55       0.08244686       0.02211826       0.05181084
C        4.02074493       9.70249637      12.49498084       56      -0.12912813       0.13762674       0.05252240
C        5.14595317       8.99090207      12.28705474       57      -0.02180588      -0.08518064      -0.14429167
C        9.21350338       4.54516934      12.52550832       58       0.80330408      -0.19711511       0.49828500
C        0.76789945       4.55128986      12.70400730       59      -0.77519083      -0.00024048      -0.01198292
C        5.48214191       4.49611553      14.44445876       60       0.00872119       0.06142030      -0.04967213
C        4.91500149       3.47505602      20.83533988       61       0.01104054       0.00540224      -0.03205171
C        6.30352483       5.54966702      20.80602141       62       0.03355319      -0.07813010      -0.22550566
C        6.14575228       5.64391787      22.27276375       63      -0.01663968       0.03257485       0.06917390
C        5.38618354       4.67706857      22.96538087       64      -0.02998861      -0.02071565       0.03938974
C        4.78158299       3.59086955      22.27876257       65      -0.03909137      -0.02965917      -0.00841680
C        3.32565586       0.89819161      13.44199848       66      -0.07172507       0.04106553       0.00215663
C        3.96016736       0.89620504      14.84061457       67       0.00687317      -0.01410399      -0.10976560
C        3.10222864       7.73519588       7.81026539       68      -0.05845970      -0.03383073       0.01636997
C        4.11309715       8.75294648       8.35868184       69       0.00673863       0.01275063      -0.04141980
N        5.63878474       4.46383788      20.16772301       70       0.01420926       0.00709103      -0.02653323
N        4.41853721       5.54392429       3.55320222       71       0.02152307       0.07496997      -0.01664440
N        8.54743706       4.96612775      11.50819364       72       0.08826692       0.21110985      -0.47467268
N        1.67076072       4.95821792      11.86001166       73      -0.44853011       0.32874382      -0.62463617
O        6.24331097       6.95402303      11.92441492       74       0.06908619      -0.07181251      -0.00390173
O        6.94949959       6.35529419      20.13985564       75      -0.03605775      -0.04329476       0.08824430
O        5.69077518       7.46533346       3.56233230       76      -0.07120058      -0.08344864      -0.11414883
O        3.10858830       3.65447285       3.54080301       77       0.13172750       0.17605451       0.07176624
O        4.06453012       6.90519086      12.57757582       78       0.00559434       0.12821177       0.03585990
O        5.82454199       5.20629322       9.67909518       79       0.04630368      -0.04688103       0.05086696
O        3.65305378       5.69580172      10.03093905       80      -0.08898616      -0.01690680       0.08357076
O        6.24163866       2.95056902      11.46755026       81       0.00396863      -0.00236852      -0.02233608
O        3.97858272       3.10566413      11.40144617       82      -0.02696416      -0.15386522      -0.04184802
O        6.55420351       4.66777695      13.77504804       83      -0.09536415      -0.00069174      -0.04197633
O        4.30684569       4.38488671      13.95545096       84       0.05268404       0.00539893      -0.09199432
O        4.39678909       2.52887884      20.19739653       85       0.08262087       0.14184889      -0.11354201
O        1.25633544       4.10556639      13.89309835       86       0.05760427      -0.13709590       0.21176468
O        1.22863040       5.39938295      10.64585644       87       0.40172189      -0.17987236       0.42681086
O        2.61681828       2.40151570       1.40528690       88      -0.02185982       0.03909993       0.25205466
O        3.44695676       1.60283235      22.34625167       89      -0.03800598      -0.14559209      -0.28865871
90
Lattice="9.89404745 0.0 0.0 -0.35029249537052476 10.884222727784724 0.0 0.516845441237713 -0.5811990668417291 23.61616757995776" Properties=species:S:1:pos:R:3:spacegroup_kinds:I:1:forces:R:3 spacegroup="P 1" unit_cell=conventional occupancy="_JSON {\"0\": {\"Zn\": 1}, \"1\": {\"Zn\": 1}, \"2\": {\"H\": 1}, \"3\": {\"H\": 1}, \"4\": {\"H\": 1}, \"5\": {\"H\": 1}, \"6\": {\"H\": 1}, \"7\": {\"H\": 1}, \"8\": {\"H\": 1}, \"9\": {\"H\": 1}, \"10\": {\"H\": 1}, \"11\": {\"H\": 1}, \"12\": {\"H\": 1}, \"13\": {\"H\": 1}, \"14\": {\"H\": 1}, \"15\": {\"H\": 1}, \"16\": {\"H\": 1}, \"17\": {\"H\": 1}, \"18\": {\"H\": 1}, \"19\": {\"H\": 1}, \"20\": {\"H\": 1}, \"21\": {\"H\": 1}, \"22\": {\"H\": 1}, \"23\": {\"H\": 1}, \"24\": {\"H\": 1}, \"25\": {\"H\": 1}, \"26\": {\"H\": 1}, \"27\": {\"H\": 1}, \"28\": {\"H\": 1}, \"29\": {\"H\": 1}, \"30\": {\"C\": 1}, \"31\": {\"C\": 1}, \"32\": {\"C\": 1}, \"33\": {\"C\": 1}, \"34\": {\"C\": 1}, \"35\": {\"C\": 1}, \"36\": {\"C\": 1}, \"37\": {\"C\": 1}, \"38\": {\"C\": 1}, \"39\": {\"C\": 1}, \"40\": {\"C\": 1}, \"41\": {\"C\": 1}, \"42\": {\"C\": 1}, \"43\": {\"C\": 1}, \"44\": {\"C\": 1}, \"45\": {\"C\": 1}, \"46\": {\"C\": 1}, \"47\": {\"C\": 1}, \"48\": {\"C\": 1}, \"49\": {\"C\": 1}, \"50\": {\"C\": 1}, \"51\": {\"C\": 1}, \"52\": {\"C\": 1}, \"53\": {\"C\": 1}, \"54\": {\"C\": 1}, \"55\": {\"C\": 1}, \"56\": {\"C\": 1}, \"57\": {\"C\": 1}, \"58\": {\"C\": 1}, \"59\": {\"C\": 1}, \"60\": {\"C\": 1}, \"61\": {\"C\": 1}, \"62\": {\"C\": 1}, \"63\": {\"C\": 1}, \"64\": {\"C\": 1}, \"65\": {\"C\": 1}, \"66\": {\"C\": 1}, \"67\": {\"C\": 1}, \"68\": {\"C\": 1}, \"69\": {\"C\": 1}, \"70\": {\"N\": 1}, \"71\": {\"N\": 1}, \"72\": {\"N\": 1}, \"73\": {\"N\": 1}, \"74\": {\"O\": 1}, \"75\": {\"O\": 1}, \"76\": {\"O\": 1}, \"77\": {\"O\": 1}, \"78\": {\"O\": 1}, \"79\": {\"O\": 1}, \"80\": {\"O\": 1}, \"81\": {\"O\": 1}, \"82\": {\"O\": 1}, \"83\": {\"O\": 1}, \"84\": {\"O\": 1}, \"85\": {\"O\": 1}, \"86\": {\"O\": 1}, \"87\": {\"O\": 1}, \"88\": {\"O\": 1}, \"89\": {\"O\": 1}}" energy=-613.3267211914062 free_energy=-613.3267211914062 stress="0.0007594966446049511 0.00017980742268264294 0.00014199219003785402 0.00017980742268264294 8.4106890426483e-05 -0.000245934643317014 0.00014199219003785402 -0.000245934643317014 -0.0005301659693941474" pbc="T T T"
Zn       6.51147601       4.97010033      11.62656660        0       0.02608198       0.00817868       0.05072839
Zn       3.74345301       4.98755803      12.10340261        1      -0.28337017       0.00747509       0.01225136
H        7.30887443       7.43862626      22.40241073        2      -0.01795566      -0.02344467      -0.00387864
H        7.67442785       4.03265665      16.03885946        3       0.01479220       0.00296612      -0.01288015
H        3.46393717       4.84518659      16.13802751        4      -0.02085958       0.00032092      -0.00214653
H        3.52387283       4.87988610      18.64471541        5      -0.04993765      -0.02599138       0.01089460
H        5.70049956       0.43264413      10.88956671        6       0.10998017       0.05668176       0.06762566
H        3.11959825       9.14003378      12.76343325        7       0.01941913      -0.03333382       0.09380686
H        6.10426590       9.47293042      12.08774968        8      -0.04019922      -0.02546418      -0.06506656
H        8.62584864       4.16895944      13.37027783        9      -0.05719231      -0.00029530      -0.00933740
H        9.13202992       5.32557769      10.74335047       10       0.08618069       0.00670237      -0.02750638
H        6.51021759       8.21802737       1.29255281       11      -0.02483892      -0.03783034       0.01564729
H        5.61997354       3.75969604       5.09622685       12      -0.00459936      -0.02437206       0.01895102
H        5.71869567       3.81493693       7.59246310       13       0.01522977      -0.00740163      -0.00167005
H        3.21451827       7.32549311       5.15200630       14       0.03351482      -0.02834783       0.01224731
H        7.73656072       4.00007047      18.54280055       15       0.02314928       0.02110005      -0.00151644
H        4.19438638      -0.12251365      15.17356062       16      -0.02873280      -0.00549660      -0.01846881
H        4.89100823       1.47690905      14.83922040       17       0.00101276       0.01500858       0.00230001
H        3.28311854       1.35406153      15.57436240       18       0.02513187      -0.01247188      -0.04872439
H        3.07190695       1.92474469      13.14469200       19      -0.01354451      -0.02146810       0.02689912
H        2.38799071       0.31823845      13.46218902       20      -0.01474458       0.01970084       0.05048562
H        0.51985783       3.80317486      14.45463855       21       0.06118297      -0.02666506       0.12107708
H        2.10549540       5.57462721      10.14582425       22      -0.22999549      -0.01958717       0.01805082
H        2.64174050       2.68608996       2.38516622       23      -0.02737557      -0.05661271      -0.05399756
H        3.69226546       1.72503216      21.36419283       24      -0.04894604      -0.03320409       0.08015561
H        4.77144424       8.29887768       9.10728287       25      -0.00042682      -0.01584247       0.02704483
H        4.73932225       9.15332942       7.54916409       26      -0.00790962      -0.00073129      -0.00303807
H        3.59194549       9.59171249       8.83904296       27      -0.01151146       0.00261954       0.01960229
H        2.42767467       8.23706483       7.09669082       28      -0.00523048       0.02398611       0.01211646
H        2.47401686       7.37083690       8.63613733       29       0.00011898       0.00484969       0.03155671
C        5.14917708       7.51426711      12.27147608       30       0.06841870      -0.05965751       0.00410707
C        6.73043674       6.70433124      22.96400823       31       0.01573339      -0.00282337      -0.04616760
C        6.05338644       7.39656131       0.73924696       32       0.06183299       0.08685473      -0.03574504
C        5.30935507       6.45001496       1.43709912       33      -0.08160928      -0.13272320       0.07989386
C        4.70613154       5.37049252       0.75316387       34       0.02257035       0.04255044       0.01547572
C        3.93991291       4.39961560       1.45124301       35       0.02394652       0.05342019       0.06166968
C        3.33864609       3.33034316       0.77354982       36      -0.05403426      -0.14073068       0.03471199
C        4.02432985       2.62963127      22.96761532       37      -0.00913191       0.01009470      -0.06701446
C        5.17188555       6.56339451       2.90796010       38      -0.11004783      -0.09619071       0.01416975
C        3.78254544       4.49234503       2.89613968       39      -0.00309671      -0.00433969       0.00536005
C        5.11003391       4.54000930       5.66005144       40      -0.01728247      -0.03981079      -0.06286076
C        4.66079553       5.49787009       9.25964586       41       0.12122758      -0.04881528       0.08515674
C        5.15755766       4.57090217       7.04446808       42       0.01962759       0.02141888       0.01115764
C        4.49393768       5.57081475       7.77443122       43       0.04809110      -0.06680642       0.09828014
C        3.76543071       6.57461593       7.10152519       44       0.08348116      -0.06796059       0.01983370
C        3.74483399       6.54316307       5.70001389       45      -0.02965556       0.11031437      -0.02232656
C        4.40457415       5.54294317       4.99541336       46       0.00122447       0.02060077       0.04701938
C        6.80514956       4.18852295      18.01015382       47       0.05238651       0.05609231      -0.01422352
C        6.76697769       4.20697914      16.61540762       48      -0.02503552      -0.00322139      -0.02843123
C        5.56245327       4.44132678      15.93910828       49      -0.00650080       0.01776298       0.03389007
C        4.39148324       4.66539502      16.67846958       50       0.02641410       0.01625787       0.01363686
C        4.42512176       4.67843890      18.06815177       51       0.02791224      -0.05569379      -0.04391826
C        5.07094980       2.44723913      11.46189717       52       0.05433360      -0.05467519       0.09675271
C        5.63335790       4.43273147      18.72438557       53      -0.05532249       0.01321217      -0.06885859
C        4.25169510       0.26851589      12.42423956       54      -0.06311488      -0.07565987      -0.01133093
C        5.00523569       0.96442119      11.54253137       55       0.10908446       0.03993289       0.02164391
C        4.01824550       9.70437021      12.49540890       56      -0.02134529       0.01076678       0.01069041
C        5.14463967       8.99068900      12.28515853       57      -0.04048796       0.05354041      -0.13026825
C        9.21473640       4.54622444      12.52608640       58       0.59030384      -0.14224119       0.32286102
C        0.76491571       4.55116221      12.70301975       59      -0.61694306      -0.00278155       0.05272202
C        5.48064898       4.49765820      14.44462809       60       0.00621407       0.04757924      -0.17244869
C        4.91511167       3.47582699      20.83319972       61      -0.01389355       0.00678397       0.00970221
C        6.30213494       5.54840408      20.80303090       62      -0.01409180      -0.09231845      -0.04883114
C        6.14463569       5.64521059      22.27250828       63      -0.04535590      -0.04134363      -0.02390602
C        5.38489921       4.67754332      22.96488284       64      -0.03180574      -0.03138949       0.03657522
C        4.78021728       3.59172575      22.27825827       65      -0.01408309      -0.00818561      -0.02666909
C        3.32404639       0.89884103      13.44084073       66      -0.08662361       0.05697187      -0.05062487
C        3.95924333       0.89641330      14.83783732       67       0.01753593       0.03940026      -0.07337287
C        3.10078000       7.73482862       7.80849441       68      -0.03909922      -0.02259133       0.04260607
C        4.11154714       8.75368907       8.35734840       69       0.04960945      -0.06474867      -0.04848659
N        5.63812912       4.46517994      20.16555811       70       0.00355146      -0.03784618      -0.02688356
N        4.41695150       5.54627213       3.55254889       71      -0.00978503       0.00809410       0.03452961
N        8.54630690       4.96790768      11.50522146       72       0.23993112       0.15334105      -0.32463524
N        1.66780538       4.96032624      11.85701458       73      -0.43381423       0.25039384      -0.44504386
O        6.24504870       6.95321683      11.92413614       74      -0.03203309       0.01628869       0.03072526
O        6.94751819       6.35459058      20.14143254       75       0.05456508       0.05892418      -0.02868104
O        5.68799917       7.46404468       3.56116048       76       0.03089822       0.10289301       0.04701598
O        3.10952476       3.65646794       3.54277128       77       0.11470136       0.15134473       0.09864518
O        4.06380756       6.90766703      12.57768285       78       0.07613572       0.15072930       0.01601246
O        5.82611603       5.20471731       9.67916341       79      -0.12938812       0.00278246      -0.01171847
O        3.65043279       5.69608160      10.03148699       80       0.01407486      -0.03022921       0.01098980
O        6.24110815       2.95223214      11.46717068       81       0.02268612       0.00952125      -0.01557172
O        3.97780078       3.10410326      11.40005418       82      -0.06148046      -0.09151748      -0.03494860
O        6.55215343       4.66834652      13.77354410       83      -0.08459356       0.00472440      -0.02148706
O        4.30593788       4.38451455      13.95268440       84       0.06227791       0.01288289      -0.05105980
O        4.39684884       2.53133201      20.19509093       85       0.07896642       0.12040735      -0.12938064
O        1.25572055       4.10449842      13.89503668       86       0.10537793      -0.05993524       0.03359836
O        1.22896187       5.39845124      10.64782751       87       0.32535782      -0.13636610       0.30996484
O        2.61465382       2.40185658       1.40816617       88       0.05075470       0.08617926      -0.00293646
O        3.44503253       1.60095309      22.34337133       89       0.02200389       0.00751245      -0.05477755
90
Lattice="9.89404745 0.0 0.0 -0.35029249537052476 10.884222727784724 0.0 0.516845441237713 -0.5811990668417291 23.61616757995776" Properties=species:S:1:pos:R:3:spacegroup_kinds:I:1:forces:R:3 spacegroup="P 1" unit_cell=conventional occupancy="_JSON {\"0\": {\"Zn\": 1}, \"1\": {\"Zn\": 1}, \"2\": {\"H\": 1}, \"3\": {\"H\": 1}, \"4\": {\"H\": 1}, \"5\": {\"H\": 1}, \"6\": {\"H\": 1}, \"7\": {\"H\": 1}, \"8\": {\"H\": 1}, \"9\": {\"H\": 1}, \"10\": {\"H\": 1}, \"11\": {\"H\": 1}, \"12\": {\"H\": 1}, \"13\": {\"H\": 1}, \"14\": {\"H\": 1}, \"15\": {\"H\": 1}, \"16\": {\"H\": 1}, \"17\": {\"H\": 1}, \"18\": {\"H\": 1}, \"19\": {\"H\": 1}, \"20\": {\"H\": 1}, \"21\": {\"H\": 1}, \"22\": {\"H\": 1}, \"23\": {\"H\": 1}, \"24\": {\"H\": 1}, \"25\": {\"H\": 1}, \"26\": {\"H\": 1}, \"27\": {\"H\": 1}, \"28\": {\"H\": 1}, \"29\": {\"H\": 1}, \"30\": {\"C\": 1}, \"31\": {\"C\": 1}, \"32\": {\"C\": 1}, \"33\": {\"C\": 1}, \"34\": {\"C\": 1}, \"35\": {\"C\": 1}, \"36\": {\"C\": 1}, \"37\": {\"C\": 1}, \"38\": {\"C\": 1}, \"39\": {\"C\": 1}, \"40\": {\"C\": 1}, \"41\": {\"C\": 1}, \"42\": {\"C\": 1}, \"43\": {\"C\": 1}, \"44\": {\"C\": 1}, \"45\": {\"C\": 1}, \"46\": {\"C\": 1}, \"47\": {\"C\": 1}, \"48\": {\"C\": 1}, \"49\": {\"C\": 1}, \"50\": {\"C\": 1}, \"51\": {\"C\": 1}, \"52\": {\"C\": 1}, \"53\": {\"C\": 1}, \"54\": {\"C\": 1}, \"55\": {\"C\": 1}, \"56\": {\"C\": 1}, \"57\": {\"C\": 1}, \"58\": {\"C\": 1}, \"59\": {\"C\": 1}, \"60\": {\"C\": 1}, \"61\": {\"C\": 1}, \"62\": {\"C\": 1}, \"63\": {\"C\": 1}, \"64\": {\"C\": 1}, \"65\": {\"C\": 1}, \"66\": {\"C\": 1}, \"67\": {\"C\": 1}, \"68\": {\"C\": 1}, \"69\": {\"C\": 1}, \"70\": {\"N\": 1}, \"71\": {\"N\": 1}, \"72\": {\"N\": 1}, \"73\": {\"N\": 1}, \"74\": {\"O\": 1}, \"75\": {\"O\": 1}, \"76\": {\"O\": 1}, \"77\": {\"O\": 1}, \"78\": {\"O\": 1}, \"79\": {\"O\": 1}, \"80\": {\"O\": 1}, \"81\": {\"O\": 1}, \"82\": {\"O\": 1}, \"83\": {\"O\": 1}, \"84\": {\"O\": 1}, \"85\": {\"O\": 1}, \"86\": {\"O\": 1}, \"87\": {\"O\": 1}, \"88\": {\"O\": 1}, \"89\": {\"O\": 1}}" energy=-613.3416137695312 free_energy=-613.3416137695312 stress="0.0005879068630747497 0.00019372822134755552 8.879395318217576e-05 0.00019372822134755552 8.693077688803896e-05 -0.000213007559068501 8.879395318217576e-05 -0.000213007559068501 -0.00036187435034662485" pbc="T T T"
Zn       6.51177806       4.97098448      11.62637543        0       0.03958674       0.01251983       0.04483386
Zn       3.74065717       4.98812047      12.10102303        1      -0.28071108       0.02207633       0.01103993
H        7.30658866       7.43861438      22.40111576        2       0.00055298      -0.00392438      -0.02627497
H        7.67383300       4.03336103      16.03746224        3      -0.00149852       0.00564750      -0.00365819
H        3.46272258       4.84520244      16.13698275        4      -0.04577748       0.00856681      -0.01745383
H        3.52203324       4.88051111      18.64335303        5      -0.03294399      -0.03435260       0.00920917
H        5.70187863       0.43515822      10.89097763        6       0.12472905       0.05000570       0.05458511
H        3.11832493       9.14027197      12.76457731        7       0.02292345      -0.02704971       0.09011455
H        6.10238638       9.47228609      12.08543013        8      -0.02926764      -0.00034927      -0.07035209
H        8.62505199       4.16959957      13.36784263        9      -0.05816178      -0.00407771       0.01488150
H        9.13405605       5.32795309      10.74209820       10       0.09749322       0.01131247      -0.03601620
H        6.50867180       8.21880527       1.29177566       11      -0.01538996      -0.02894440       0.02048472
H        5.61857387       3.75982131       5.09539846       12       0.00044782      -0.02693258       0.01304911
H        5.71859243       3.81534813       7.59174405       13       0.00811090       0.00178196      -0.00836087
H        3.21424130       7.32633577       5.15161394       14       0.00242539       0.01392134      -0.01088631
H        7.73575322       4.00196774      18.54063296       15       0.03448348       0.01894434       0.01343430
H        4.19244374      -0.12238032      15.17104932       16      -0.02526287      -0.00104371      -0.02371587
H        4.88993818       1.47803936      14.83818238       17       0.00149778       0.00691937      -0.00102854
H        3.28264479       1.35452496      15.57150605       18       0.01773869      -0.00931703      -0.03908046
H        3.07021126       1.92553901      13.14442151       19      -0.01661652       0.02463159       0.00418371
H        2.38583088       0.31909158      13.46199152       20       0.02771327       0.05098658       0.04460475