64
Lattice="8.55695101 0.0 0.0 0.6813060903686853 9.809035783027674 0.0 0.3415645463023259 4.902207643059712 8.488207917243285" Properties=species:S:1:pos:R:3:spacegroup_kinds:I:1:forces:R:3 spacegroup="P 1" unit_cell=conventional occupancy="_JSON {\"0\": {\"Sr\": 1}, \"1\": {\"Sr\": 1}, \"2\": {\"Cu\": 1}, \"3\": {\"Cu\": 1}, \"4\": {\"H\": 1}, \"5\": {\"H\": 1}, \"6\": {\"H\": 1}, \"7\": {\"H\": 1}, \"8\": {\"H\": 1}, \"9\": {\"H\": 1}, \"10\": {\"H\": 1}, \"11\": {\"H\": 1}, \"12\": {\"H\": 1}, \"13\": {\"H\": 1}, \"14\": {\"H\": 1}, \"15\": {\"H\": 1}, \"16\": {\"C\": 1}, \"17\": {\"C\": 1}, \"18\": {\"C\": 1}, \"19\": {\"C\": 1}, \"20\": {\"C\": 1}, \"21\": {\"C\": 1}, \"22\": {\"C\": 1}, \"23\": {\"C\": 1}, \"24\": {\"C\": 1}, \"25\": {\"C\": 1}, \"26\": {\"C\": 1}, \"27\": {\"C\": 1}, \"28\": {\"C\": 1}, \"29\": {\"C\": 1}, \"30\": {\"C\": 1}, \"31\": {\"C\": 1}, \"32\": {\"C\": 1}, \"33\": {\"C\": 1}, \"34\": {\"C\": 1}, \"35\": {\"C\": 1}, \"36\": {\"C\": 1}, \"37\": {\"C\": 1}, \"38\": {\"C\": 1}, \"39\": {\"C\": 1}, \"40\": {\"C\": 1}, \"41\": {\"C\": 1}, \"42\": {\"C\": 1}, \"43\": {\"C\": 1}, \"44\": {\"N\": 1}, \"45\": {\"N\": 1}, \"46\": {\"N\": 1}, \"47\": {\"N\": 1}, \"48\": {\"O\": 1}, \"49\": {\"O\": 1}, \"50\": {\"O\": 1}, \"51\": {\"O\": 1}, \"52\": {\"O\": 1}, \"53\": {\"O\": 1}, \"54\": {\"O\": 1}, \"55\": {\"O\": 1}, \"56\": {\"O\": 1}, \"57\": {\"O\": 1}, \"58\": {\"O\": 1}, \"59\": {\"O\": 1}, \"60\": {\"O\": 1}, \"61\": {\"O\": 1}, \"62\": {\"O\": 1}, \"63\": {\"O\": 1}}" energy=-462.33612060546875 free_energy=-462.33612060546875 stress="-0.013558467850089073 -0.0035734635312110186 -0.00413591880351305 -0.0035734635312110186 -0.009019408375024796 -0.004948488902300596 -0.00413591880351305 -0.004948488902300596 0.004192018415778875" pbc="T T T"
Sr       2.81272806       9.83927810       0.16712744        0       0.05252478       0.01587531       0.34641838
Sr       6.75442340       4.93102286       8.27201487        1      -0.02599176      -0.01770255      -0.32498524
Cu       4.96081527       9.80678674       8.48810871        2       0.17380296       0.16699159      -0.02922451
Cu       0.68222352       9.80681415       8.48823112        3       0.14702064       0.18072435      -0.27213746
H        5.65526605       6.26396787       4.85823619        4      -0.01707409       0.00147571       0.08418299
H        7.90093327       3.58639371       4.85753478        5      -0.40591872      -0.28299266       0.55125004
H        3.97402436       8.49643002       3.60285338        6      -0.84487224      -0.84630919      -1.03778505
H        1.71617621      11.17427678       3.57480795        7      -0.44189748      -0.38935119       0.32977006
H        2.99941168       2.93678955       4.19353806        8      -0.00389733       0.13102719      -0.36249781
H        1.98294254       6.90593291       4.13880806        9       0.40010232       0.44631985       0.28844026
H        6.57557337      11.76196890       4.32018279       10       1.50272429       1.91483641      -0.71698487
H        7.58339960       7.84789936       4.29398710       11       0.31686312       0.31321913       0.20825502
H        5.84330261       6.53757791       2.37480156       12       0.70778680       0.71411359      -0.66360158
H        7.66886093       3.32704010       2.33138732       13      -0.61975706      -0.83857894      -0.47195309
H        3.71873395       8.21066941       6.14729668       14       0.00710140      -0.15744925       0.04980201
H        1.89474782      11.43877565       6.10779979       15       0.09352622      -0.07591068       0.08616355
C        4.28459697       4.59939725       4.67921389       16      -0.26203820      -0.21195602      -0.14072147
C        0.70343091       5.25519059       4.67273569       17      -0.58720195      -0.37390831       1.43375862
C        5.32461383      10.16923605       3.75890051       18      -1.40030086      -1.01764715       0.51474762
C        8.88615999       9.49861856       3.76519613       19      -0.03713361       0.06651270      -0.78592259
C        3.81894655       3.93552276       2.41937059       20      -0.01702625      -0.54595721       1.23160100
C        1.15297263       5.90443192       2.45138550       21       0.91856688       1.23783994      -0.59472680
C        5.75156917      10.83303778       6.03445651       22       0.34861940      -0.04758027      -1.28064442
C        8.45649354       8.81273692       6.01437167       23      -1.09512055      -0.72088194       0.17158031
C        5.11943217       5.60724444       4.16887308       24       0.03683379      -0.07508160       0.42123169
C        8.39191091       4.25756170       4.18021865       25       0.61637884      -0.00104466      -1.23529935
C        4.44929670       9.15824699       4.26529914       26       1.44884765       1.06052613       2.10978365
C        1.14738731      10.50763097       4.26536914       27       0.94457072       0.58234525       0.45270219
C        3.61178728       3.74134819       3.77808553       28       0.62302965       0.26424479       0.54480648
C        1.35312159       6.10547699       3.81876430       29      -0.42306399      -0.20471857      -1.56537247
C        5.95594752      11.02014765       4.65803177       30      -1.62595654      -1.71190917       1.61419594
C        8.25071500       8.64640171       4.65766600       31      -0.33725506      -0.75069380      -0.04213619
C        3.18658554       3.08489718       1.39572464       32      -1.06313562      -0.62386572      -1.07339323
C        1.82409501       6.78276918       1.38041033       33      -1.08157742      -1.31354809      -0.84509653
C        6.41726961      11.67072376       7.06025506       34       0.63873696       0.81720698       1.08239973
C        7.75269238       7.98712329       7.07372577       35       0.68872797       0.03472060       0.27674586
C        5.26459193       5.74928440       2.78853767       36       0.12145190       0.31174690       1.87235868
C        8.27583814       4.06601165       2.79202029       37       0.82183290       1.67929959       0.74064863
C        4.34945380       8.97457001       5.69076881       38      -0.67003381      -0.31229860      -2.62686968
C        1.30468405      10.63261445       5.66305705       39       0.11329498       0.59093100      -0.87561643
C        4.00947280       4.43595303       6.15936271       40      -0.02180360      -0.24280691      -0.42721933
C        0.94304239       5.42785628       6.17321910       41      -0.93444073      -0.80098248      -0.87864411
C        5.53268489      10.32884984       2.28746492       42       0.67569351       0.54920787       0.70890784
C        8.62747013       9.33919578       2.27380705       43       0.47381800       0.12466398       0.68137395
N        4.62933993       4.92539888       1.98881188       44      -0.51235747      -0.61919236      -1.94279778
N        0.38516101       4.93105571       1.93678242       45      -0.87394094      -1.15838397       1.28737259
N        5.00588777       9.79017869       6.49450126       46       0.28226274       0.96022522       1.15317380
N        9.21154752       9.80539795       6.50619797       47       0.73323423       0.48419130      -0.00855255
O        3.36620734       3.43342277       0.17234951       48       0.45982611       0.05177297      -0.00710437
O        1.57326368       6.42398495       0.15294492       49       0.04112075       0.25466427       0.77059811
O        6.21769425      11.32680665       8.29175714       50      -0.28486666      -0.01823156      -0.48236418
O        8.00550754       8.33029654       8.28768778       51      -0.08117522      -0.13324261      -0.11304411
O        3.86940212      13.34816750       6.53441274       52       0.22140932       0.35931697      -0.30899507
O        1.73128540       6.32191429       6.55750464       53       0.40990838       0.26418972       0.10223008
O        5.66809389       1.42198247       1.91999838       54      -0.05321920      -0.19200033      -0.08915018
O        7.80888898       8.44046806       1.91748106       55       0.17590347       0.47234786      -0.12679771
O        2.45862708       2.10532349       1.71757877       56       0.24357510      -0.07410008       0.31635797
O        2.50094621       7.75921124       1.71092691       57       0.74037510       1.06013775       0.42533123
O        7.13490266      12.66271361       6.72353745       58      -0.44316158      -0.35052058      -0.04961002
O        7.05835744       7.00735286       6.73712040       59      -0.42793107      -0.49198222      -0.18971357
O        4.58083778       5.24521810       6.97188241       60       0.05821422       0.18700522       0.05439220
O        0.33150881       4.60126500       6.95304712       61       0.31722093       0.19586346      -0.04498158
O        4.95650781       9.52087853       1.49870446       62      -0.31980067      -0.49784619      -0.52201378
O        9.25161334      10.14870458       1.48037697       63      -0.64295667      -0.39486721       0.22537658
64
Lattice="8.55695101 0.0 0.0 0.6813060903686853 9.809035783027674 0.0 0.3415645463023259 4.902207643059712 8.488207917243285" Properties=species:S:1:pos:R:3:spacegroup_kinds:I:1:forces:R:3 spacegroup="P 1" unit_cell=conventional occupancy="_JSON {\"0\": {\"Sr\": 1}, \"1\": {\"Sr\": 1}, \"2\": {\"Cu\": 1}, \"3\": {\"Cu\": 1}, \"4\": {\"H\": 1}, \"5\": {\"H\": 1}, \"6\": {\"H\": 1}, \"7\": {\"H\": 1}, \"8\": {\"H\": 1}, \"9\": {\"H\": 1}, \"10\": {\"H\": 1}, \"11\": {\"H\": 1}, \"12\": {\"H\": 1}, \"13\": {\"H\": 1}, \"14\": {\"H\": 1}, \"15\": {\"H\": 1}, \"16\": {\"C\": 1}, \"17\": {\"C\": 1}, \"18\": {\"C\": 1}, \"19\": {\"C\": 1}, \"20\": {\"C\": 1}, \"21\": {\"C\": 1}, \"22\": {\"C\": 1}, \"23\": {\"C\": 1}, \"24\": {\"C\": 1}, \"25\": {\"C\": 1}, \"26\": {\"C\": 1}, \"27\": {\"C\": 1}, \"28\": {\"C\": 1}, \"29\": {\"C\": 1}, \"30\": {\"C\": 1}, \"31\": {\"C\": 1}, \"32\": {\"C\": 1}, \"33\": {\"C\": 1}, \"34\": {\"C\": 1}, \"35\": {\"C\": 1}, \"36\": {\"C\": 1}, \"37\": {\"C\": 1}, \"38\": {\"C\": 1}, \"39\": {\"C\": 1}, \"40\": {\"C\": 1}, \"41\": {\"C\": 1}, \"42\": {\"C\": 1}, \"43\": {\"C\": 1}, \"44\": {\"N\": 1}, \"45\": {\"N\": 1}, \"46\": {\"N\": 1}, \"47\": {\"N\": 1}, \"48\": {\"O\": 1}, \"49\": {\"O\": 1}, \"50\": {\"O\": 1}, \"51\": {\"O\": 1}, \"52\": {\"O\": 1}, \"53\": {\"O\": 1}, \"54\": {\"O\": 1}, \"55\": {\"O\": 1}, \"56\": {\"O\": 1}, \"57\": {\"O\": 1}, \"58\": {\"O\": 1}, \"59\": {\"O\": 1}, \"60\": {\"O\": 1}, \"61\": {\"O\": 1}, \"62\": {\"O\": 1}, \"63\": {\"O\": 1}}" energy=-461.6177673339844 free_energy=-461.6177673339844 stress="-0.011597156524658203 -0.0016845002537593246 -0.002759217517450452 -0.0016845002537593246 -0.007203016430139542 -0.00395148154348135 -0.002759217517450452 -0.00395148154348135 0.006768594961613417" pbc="T T T"
Sr       2.83040985       9.86919235       0.14113747        0       0.10858037       0.00656492       0.36477697
Sr       6.73822592       4.96001144       8.24453780        1      -0.07543179      -0.03868295      -0.22686142
Cu       4.94427442       9.81865390       8.50697633        2       0.33551317       0.33712530      -0.06109482
Cu       0.70032257       9.83622899       8.46407836        3       0.10134604       0.10163200      -0.22593726
H        5.68221902       6.28231526       4.83219383        4      -0.28079382      -0.26890749      -0.08279400
H        7.89478200       3.61223986       4.83355865        5      -0.21013808      -0.11438404       0.36487758
H        3.99585355       8.52230277       3.61796221        6      -1.29852104      -1.49032950      -1.70149016
H        1.74443546      11.20351593       3.59445436        7      -0.53320312      -0.50990081       0.03018062
H        3.01660136       2.96417574       4.18872473        8      -0.34675995      -0.14479864      -0.29855946
H        1.97417963       6.92839625       4.11920128        9       0.56633210       0.65422261       0.38901907
H        6.60197017      11.78942719       4.33871266       10       1.78657579       2.25548553      -0.93254811
H        7.60914363       7.87244516       4.27116435       11       0.23580936       0.25414091       0.00786822
H        5.85188159       6.56194855       2.38050546       12       0.80313796       0.87383819      -0.88678145
H        7.69656514       3.34856214       2.31229199       13      -1.22145867      -1.49003220      -0.86211073
H        3.74252399       8.23822599       6.16801128       14       0.06718004      -0.14459176      -0.08842324
H        1.89911556      11.46808289       6.08531828       15       0.13431546      -0.06115389      -0.00206637
C        4.25877191       4.62930107       4.65685444       16       0.39909443       0.23897956      -0.51092708
C        0.67441722       5.28481097       4.64299442       17       0.09420176       0.14768192       1.84192419
C        5.34737755      10.18694768       3.73274107       18      -1.28149796      -0.80157799       1.72549558
C        8.90908811       9.52412734       3.76407495       19      -0.52390349      -0.57626975      -2.27683496
C        3.79776610       3.94278602       2.39016071       20       1.05132997       0.91078770       1.87376523
C        1.15850046       5.93423304       2.45801663       21       0.16232711       0.84169012      -2.53408265
C        5.74984061      10.86150314       6.04434704       22       0.54916447      -0.09455143      -3.26537371
C        8.43349782       8.81917724       6.00731471       23       0.68910766       0.87378782      -0.56078780
C        5.12050877       5.62409998       4.14520407       24      -0.12178504       0.09449803       0.96405244
C        8.40167274       4.28117033       4.15071250       25      -0.21233246      -0.48571470      -0.89723122
C        4.47136829       9.18080920       4.24610442       26       1.83484650       1.50582099       3.66474628
C        1.15527171      10.51346270       4.23977275       27       1.84706378       1.77165747       1.17496884
C        3.58920406       3.77068327       3.74973917       28       0.79624653       0.37025177       0.51630461
C        1.35482490       6.13337193       3.79083110       29      -0.63619697      -0.36548382      -0.37231129
C        5.97575902      11.04724446       4.62917497       30      -2.33466220      -2.43552899       3.17362690
C        8.26713440       8.67511418       4.62872378       31      -0.79460239      -1.28913140       1.27735806
C        3.16582148       3.10685075       1.38917228       32       0.30738294       0.58655798      -2.55691218
C        1.79627295       6.81236693       1.35066287       33       0.58121848      -0.15421313       0.11922842
C        6.41337006      11.69680215       7.03101850       34       0.61803055       0.94529885       1.89339495
C        7.77831973       8.00936139       7.04815512       35      -0.77009284      -0.67633200       1.92405581
C        5.25568622       5.77862639       2.76381700       36       0.76899153       0.72995555       2.94970131
C        8.26058417       4.09555105       2.76209161       37       1.53102136       2.15055013       1.19277239
C        4.37836600       8.99545573       5.70005253       38      -0.73767573      -0.22265562      -3.20841312
C        1.31751915      10.65919759       5.63362973       39      -0.19628172       0.16167569      -0.38648331
C        4.01335968       4.46588283       6.13000725       40       0.24262613       0.11030012      -0.00115198
C        0.91652420       5.45712401       6.14668838       41       0.40995878       0.02106561       0.39007229
C        5.55421049      10.35552183       2.31250015       42       0.19873546      -0.03660713      -2.24284077
C        8.65517704       9.36489827       2.24476359       43      -0.78662276      -0.94967806       1.53771472
N        4.65712998       4.95039286       1.98969559       44      -2.14024305      -2.26178169      -3.09215641
N        0.36480208       4.95773349       1.92566191       45      -0.28255704      -0.50159383       1.15541530
N        5.02426424       9.81788454       6.50799007       46       0.01939855       0.70366520       0.86848247
N        9.23146738       9.83419961       6.48777172       47      -0.06362314      -0.31098783      -0.27269495
O        3.37019928       3.45181070       0.15151873       48       0.26311645       0.03944886       0.31152087
O        1.59958152       6.45049814       0.12598142       49      -0.30202281       0.14019707       0.79354990
O        6.21083350      11.35421227       8.26580480       50      -0.22632749       0.02070439      -0.35945246
O        7.98115553       8.35960599       8.31170460       51       0.11555427      -0.40396869      -1.89711404
O        3.88125209      13.37793367       6.50848904       52       0.10035896       0.26430014      -0.14561221
O        1.75464002       6.34896200       6.56576031       53      -1.02889895      -1.03426301      -0.92296708
O        5.67088377       1.45186562       1.89747292       54      -0.13378310      -0.35458028       0.40573689
O        7.79059781       8.46457380       1.90372259       55       1.20226657       1.38577044      -0.01042174
O        2.48041275       2.13527360       1.68771429       56      -1.15048945      -1.73751068       0.95695180
O        2.51754327       7.78847808       1.69947626       57      -0.38347331      -0.11266483      -0.06233275
O        7.12018179      12.69110679       6.69464877       58      -0.19522256      -0.13276947      -0.16156110
O        7.04431009       7.03730082       6.70939706       59       0.35743812       0.17435539       0.12476836
O        4.61000140       5.27393151       6.94658045       60      -0.35389531      -0.22605473      -0.38066339
O        0.33636669       4.62542763       6.95884537       61       0.34059969       0.53203553      -0.66242474
O        4.95940297       9.54763507       1.47854690       62       0.31626576       0.30863100       0.62775648
O        9.27266494      10.17579186       1.48709460       63      -0.31264022      -0.08597800      -0.47067028
64
Lattice="8.55695101 0.0 0.0 0.6813060903686853 9.809035783027674 0.0 0.3415645463023259 4.902207643059712 8.488207917243285" Properties=species:S:1:pos:R:3:spacegroup_kinds:I:1:forces:R:3 spacegroup="P 1" unit_cell=conventional occupancy="_JSON {\"0\": {\"Sr\": 1}, \"1\": {\"Sr\": 1}, \"2\": {\"Cu\": 1}, \"3\": {\"Cu\": 1}, \"4\": {\"H\": 1}, \"5\": {\"H\": 1}, \"6\": {\"H\": 1}, \"7\": {\"H\": 1}, \"8\": {\"H\": 1}, \"9\": {\"H\": 1}, \"10\": {\"H\": 1}, \"11\": {\"H\": 1}, \"12\": {\"H\": 1}, \"13\": {\"H\": 1}, \"14\": {\"H\": 1}, \"15\": {\"H\": 1}, \"16\": {\"C\": 1}, \"17\": {\"C\": 1}, \"18\": {\"C\": 1}, \"19\": {\"C\": 1}, \"20\": {\"C\": 1}, \"21\": {\"C\": 1}, \"22\": {\"C\": 1}, \"23\": {\"C\": 1}, \"24\": {\"C\": 1}, \"25\": {\"C\": 1}, \"26\": {\"C\": 1}, \"27\": {\"C\": 1}, \"28\": {\"C\": 1}, \"29\": {\"C\": 1}, \"30\": {\"C\": 1}, \"31\": {\"C\": 1}, \"32\": {\"C\": 1}, \"33\": {\"C\": 1}, \"34\": {\"C\": 1}, \"35\": {\"C\": 1}, \"36\": {\"C\": 1}, \"37\": {\"C\": 1}, \"38\": {\"C\": 1}, \"39\": {\"C\": 1}, \"40\": {\"C\": 1}, \"41\": {\"C\": 1}, \"42\": {\"C\": 1}, \"43\": {\"C\": 1}, \"44\": {\"N\": 1}, \"45\": {\"N\": 1}, \"46\": {\"N\": 1}, \"47\": {\"N\": 1}, \"48\": {\"O\": 1}, \"49\": {\"O\": 1}, \"50\": {\"O\": 1}, \"51\": {\"O\": 1}, \"52\": {\"O\": 1}, \"53\": {\"O\": 1}, \"54\": {\"O\": 1}, \"55\": {\"O\": 1}, \"56\": {\"O\": 1}, \"57\": {\"O\": 1}, \"58\": {\"O\": 1}, \"59\": {\"O\": 1}, \"60\": {\"O\": 1}, \"61\": {\"O\": 1}, \"62\": {\"O\": 1}, \"63\": {\"O\": 1}}" energy=-460.66131591796875 free_energy=-460.66131591796875 stress="-0.01067030243575573 -0.0012462588492780924 -0.004926152992993593 -0.0012462588492780924 -0.007395572494715452 -0.006358066573739052 -0.004926152992993593 -0.006358066573739052 0.008870295248925686" pbc="T T T"
Sr       2.83282542       9.89915548       0.11279872        0       0.02726409       0.05785067       0.38240081
Sr       6.75810446       4.98933622       8.21601811        1      -0.06714088      -0.03520451      -0.17360491
Cu       4.92729121       9.84808007       8.50160336        2       0.36598265       0.42593461      -0.17354923
Cu       0.71191819       9.85933730       8.45654947        3       0.27674404       0.19523829      -0.43650684
H        5.70851330       6.30253922       4.80672972        4      -0.41484508      -0.37442169      -0.14601699
H        7.92156588       3.64070978       4.82298459        5      -0.45452058      -0.37350339       0.49642608
H        4.02043996       8.54974396       3.62580005        6      -2.22094965      -2.77608442      -2.94174433
H        1.76020704      11.23168276       3.56885041        7      -0.90678668      -0.83570236       0.45834798
H        3.03332848       2.99061670       4.15973604        8      -0.53206670      -0.44057092      -0.11306320
H        1.99606838       6.92866898       4.09144194        9       0.85765851       1.06953561       0.39500764
H        6.62951259      11.81640809       4.31708009       10       1.71086717       2.14545345      -0.87149119
H        7.62768391       7.86660315       4.28863194       11       0.05547857       0.25253037      -0.27087304
H        5.84306349       6.59157708       2.40341003       12       1.69865298       1.95088279      -1.57442415
H        7.71189778       3.37551534       2.30042743       13      -1.47911441      -1.91092741      -1.22026658
H        3.76825508       8.26620051       6.19370865       14      -0.01604430      -0.26457062      -0.23808533
H        1.91539096      11.49787196       6.09477938       15      -0.49684641      -0.73508805      -0.58148366
C        4.25973280       4.65426021       4.62724185       16       1.08710480       0.61744785      -0.14469633
C        0.70419373       5.31447873       4.61983460       17      -0.99943566      -0.75805688       1.70532477
C        5.37294305      10.20274176       3.70402514       18      -1.81696761      -0.89944172       1.91384268
C        8.93343271       9.55131341       3.73456149       19      -1.77530885      -1.48538232      -1.99224854
C        3.77467792       3.96787430       2.36831279       20       2.41304445       1.66103423       1.70036709
C        1.14451105       5.92988691       2.44277105       21       1.75166583       2.47709990      -2.98998737
C        5.75754645      10.86934730       6.01627042       22       0.85153317       0.64028549      -3.27798223
C        8.44243721       8.83911358       5.97857439       23       0.74801898       1.01135480      -0.41524178
C        5.13591039       5.64753113       4.11575491       24      -0.24288610      -0.03757176       1.45223284
C        8.40359195       4.29372951       4.12367005       25       0.82597089       0.46730518      -1.00217104
C        4.46204274       9.20818425       4.21631129       26       3.24075317       2.80505514       5.34162664
C        1.14343558      10.53831942       4.22989511       27       2.63534260       2.58298159       0.27206993
C        3.60395480       3.78666433       3.72536296       28       0.54516113       0.57111895       0.39567631
C        1.37075129       6.15527197       3.76274006       29      -0.92848736      -0.81623572      -0.03701414
C        6.00438736      11.06681764       4.59938346       30      -2.52663851      -2.68227887       3.20273161
C        8.25368653       8.70433796       4.60108226       31      -0.01359371      -0.98640996       1.41394830
C        3.17907178       3.13631518       1.35923135       32      -1.09958017      -0.63350809      -1.91737056
C        1.82515273       6.84108124       1.32179077       33      -0.81909525      -1.40119851       0.16550374
C        6.39292360      11.72228272       7.00399950       34       1.57108390       1.34832001       2.48322034
C        7.80254520       8.03902941       7.02566731       35      -1.67932570      -1.38425148       2.46414590
C        5.28273072       5.80599789       2.74048339       36      -0.19926918      -0.39877808       3.48610401
C        8.28962953       4.10281615       2.73459919       37       1.48255265       2.49257326       1.71767783
C        4.39327282       9.00880698       5.69248996       38      -0.90374947      -0.08475080      -3.71010494
C        1.29582803      10.68206702       5.61331257       39       1.08811879       1.42059815       0.32616931
C        4.03831198       4.49313538       6.11023838       40      -0.38949403      -0.08101597       0.58029073
C        0.90171183       5.48650586       6.12474306       41       0.55385983      -0.29525220       0.43109745
C        5.54529178      10.38471427       2.28284226       42       0.62630546       0.01482195      -2.20349097
C        8.64195243       9.39251842       2.22091798       43       0.38157272      -0.26195061       1.69030499
N        4.68549935       4.97982089       1.96887536       44      -2.96881795      -2.83597326      -3.07255030
N        0.39240784       4.98452783       1.90181745       45      -1.24299216      -1.70652604       1.05062354
N        5.02992931       9.84502128       6.48418702       46      -0.06798790       0.43561345       1.15546012
N        9.24951199       9.85582429       6.46461749       47      -0.66076767      -0.88362300       0.09579227
O        3.35599619       3.47416539       0.13186356       48       0.58161104       0.26479641      -0.20537594
O        1.61972506       6.47759517       0.10119814       49      -0.21815978       0.01115918       0.59469688
O        6.19986669      11.38172756       8.26393499       50      -0.27433658       0.32568187      -1.40869641
O        7.99152545       8.38892253       8.31730709       51       0.11482483      -0.63474876      -2.94554043
O        3.87275795      13.40724707       6.47860562       52       0.82453001       0.90069979      -0.31278974
O        1.73748510       6.37788954       6.53829227       53      -0.97474110      -0.93032420      -0.68597585
O        5.68017959       1.48055599       1.88564809       54      -0.42348927      -0.56188357       0.24438180
O        7.81228181       8.49416582       1.88735290       55       0.26538551       0.57402050      -0.22153765
O        2.45694089       2.16459071       1.66058064       56      -0.33873054      -0.86874998       0.73492998
O        2.49128864       7.81833946       1.67738738       57       0.54673511       0.93506533       0.36453664
O        7.14590874      12.70679080       6.66560520       58      -1.02159548      -0.89832067       0.14085630
O        7.03274613       7.06668521       6.68470159       59       1.13771713       1.01116884       0.46194080
O        4.62786936       5.29882467       6.96272249       60      -0.74769366      -0.78821814      -1.22139370
O        0.32291877       4.64008538       6.93803331       61       0.55314624       0.88385993      -0.98702794
O        4.94952761       9.57736731       1.44895232       62       0.38335454       0.46607879       0.68458295
O        9.25641200      10.20523274       1.45749241       63      -0.28058240       0.04495969      -0.51001287
64
Lattice="8.55695101 0.0 0.0 0.6813060903686853 9.809035783027674 0.0 0.3415645463023259 4.902207643059712 8.488207917243285" Properties=species:S:1:pos:R:3:spacegroup_kinds:I:1:forces:R:3 spacegroup="P 1" unit_cell=conventional occupancy="_JSON {\"0\": {\"Sr\": 1}, \"1\": {\"Sr\": 1}, \"2\": {\"Cu\": 1}, \"3\": {\"Cu\": 1}, \"4\": {\"H\": 1}, \"5\": {\"H\": 1}, \"6\": {\"H\": 1}, \"7\": {\"H\": 1}, \"8\": {\"H\": 1}, \"9\": {\"H\": 1}, \"10\": {\"H\": 1}, \"11\": {\"H\": 1}, \"12\": {\"H\": 1}, \"13\": {\"H\": 1}, \"14\": {\"H\": 1}, \"15\": {\"H\": 1}, \"16\": {\"C\": 1}, \"17\": {\"C\": 1}, \"18\": {\"C\": 1}, \"19\": {\"C\": 1}, \"20\": {\"C\": 1}, \"21\": {\"C\": 1}, \"22\": {\"C\": 1}, \"23\": {\"C\": 1}, \"24\": {\"C\": 1}, \"25\": {\"C\": 1}, \"26\": {\"C\": 1}, \"27\": {\"C\": 1}, \"28\": {\"C\": 1}, \"29\": {\"C\": 1}, \"30\": {\"C\": 1}, \"31\": {\"C\": 1}, \"32\": {\"C\": 1}, \"33\": {\"C\": 1}, \"34\": {\"C\": 1}, \"35\": {\"C\": 1}, \"36\": {\"C\": 1}, \"37\": {\"C\": 1}, \"38\": {\"C\": 1}, \"39\": {\"C\": 1}, \"40\": {\"C\": 1}, \"41\": {\"C\": 1}, \"42\": {\"C\": 1}, \"43\": {\"C\": 1}, \"44\": {\"N\": 1}, \"45\": {\"N\": 1}, \"46\": {\"N\": 1}, \"47\": {\"N\": 1}, \"48\": {\"O\": 1}, \"49\": {\"O\": 1}, \"50\": {\"O\": 1}, \"51\": {\"O\": 1}, \"52\": {\"O\": 1}, \"53\": {\"O\": 1}, \"54\": {\"O\": 1}, \"55\": {\"O\": 1}, \"56\": {\"O\": 1}, \"57\": {\"O\": 1}, \"58\": {\"O\": 1}, \"59\": {\"O\": 1}, \"60\": {\"O\": 1}, \"61\": {\"O\": 1}, \"62\": {\"O\": 1}, \"63\": {\"O\": 1}}" energy=-460.4173278808594 free_energy=-460.4173278808594 stress="-0.013782150112092495 -0.005451655946671963 -0.005999106448143721 -0.005451655946671963 -0.013068551197648048 -0.007906630635261536 -0.005999106448143721 -0.007906630635261536 0.005791712086647749" pbc="T T T"
Sr       2.81398158       9.92852307       0.09987064        0       0.17019427       0.05854106       0.39208779
Sr       6.73912255       5.01921198       8.18618212        1      -0.04173612       0.03099072      -0.18516968
Cu       4.95297959       9.87591051       8.47355922        2       0.44925600       0.33311620      -0.09022723
Cu       0.71449133       9.88540873       8.42860846        3       0.09776926       0.18569350      -0.45470238
H        5.72872563       6.32913876       4.78057657        4      -0.49164620      -0.50834632      -0.13962086
H        7.94929805       3.66791674       4.80038612        5      -0.38216674      -0.28287429       0.39133209
H        4.03162005       8.57745309       3.59946756        6      -2.10669184      -2.58494735      -2.74097586