68
Lattice="6.5933655 0.0 0.0 2.9817709521035027 10.558937146498323 0.0 2.603650469721318 0.8274297260392466 16.768295119714704" Properties=species:S:1:pos:R:3:spacegroup_kinds:I:1:forces:R:3 spacegroup="P 1" unit_cell=conventional occupancy="_JSON {\"0\": {\"Al\": 1}, \"1\": {\"Al\": 1}, \"2\": {\"H\": 1}, \"3\": {\"H\": 1}, \"4\": {\"H\": 1}, \"5\": {\"H\": 1}, \"6\": {\"H\": 1}, \"7\": {\"H\": 1}, \"8\": {\"H\": 1}, \"9\": {\"H\": 1}, \"10\": {\"H\": 1}, \"11\": {\"H\": 1}, \"12\": {\"H\": 1}, \"13\": {\"H\": 1}, \"14\": {\"H\": 1}, \"15\": {\"H\": 1}, \"16\": {\"H\": 1}, \"17\": {\"H\": 1}, \"18\": {\"C\": 1}, \"19\": {\"C\": 1}, \"20\": {\"C\": 1}, \"21\": {\"C\": 1}, \"22\": {\"C\": 1}, \"23\": {\"C\": 1}, \"24\": {\"C\": 1}, \"25\": {\"C\": 1}, \"26\": {\"C\": 1}, \"27\": {\"C\": 1}, \"28\": {\"C\": 1}, \"29\": {\"C\": 1}, \"30\": {\"C\": 1}, \"31\": {\"C\": 1}, \"32\": {\"C\": 1}, \"33\": {\"C\": 1}, \"34\": {\"C\": 1}, \"35\": {\"C\": 1}, \"36\": {\"C\": 1}, \"37\": {\"C\": 1}, \"38\": {\"C\": 1}, \"39\": {\"C\": 1}, \"40\": {\"C\": 1}, \"41\": {\"C\": 1}, \"42\": {\"C\": 1}, \"43\": {\"C\": 1}, \"44\": {\"C\": 1}, \"45\": {\"C\": 1}, \"46\": {\"C\": 1}, \"47\": {\"C\": 1}, \"48\": {\"N\": 1}, \"49\": {\"N\": 1}, \"50\": {\"O\": 1}, \"51\": {\"O\": 1}, \"52\": {\"O\": 1}, \"53\": {\"O\": 1}, \"54\": {\"O\": 1}, \"55\": {\"O\": 1}, \"56\": {\"O\": 1}, \"57\": {\"O\": 1}, \"58\": {\"O\": 1}, \"59\": {\"O\": 1}, \"60\": {\"O\": 1}, \"61\": {\"O\": 1}, \"62\": {\"O\": 1}, \"63\": {\"O\": 1}, \"64\": {\"O\": 1}, \"65\": {\"O\": 1}, \"66\": {\"O\": 1}, \"67\": {\"O\": 1}}" energy=-489.35552978515625 free_energy=-489.35552978515625 stress="-0.001113865990191698 -0.000181249066372402 0.0002857039507944137 -0.000181249066372402 0.0004909762064926326 0.0006984462961554527 0.0002857039507944137 0.0006984462961554527 -0.0004993423353880644" pbc="T T T"
Al       6.02235282       5.62929241       8.41115283        0       0.20230362       0.02372053       0.10601429
Al       9.34502571       5.59583343       8.38416460        1      -0.08380888      -0.22890006       0.17208654
H        4.35752311       7.15955825       7.51838642        2       0.00173763      -0.00018299       0.01310158
H        7.66640038       3.95169874       8.50589638        3       0.04567381       0.03978258       0.10299271
H        8.90390012       6.40119148      12.41108363        4       0.01992951      -0.03730556      -0.02278739
H        8.91130406       6.51402877      14.91817328        5      -0.03788289       0.00010313      -0.00418536
H        6.29400728       4.86879032      14.96533603        6       0.14783663      -0.06029861       0.02307031
H        6.32284575       4.83392929      12.45672082        7      -0.06086721       0.02119667       0.01367587
H        5.62596815       6.28100230       1.88717969        8      -0.10820819       0.03097619       0.01262052
H        2.89948595       4.40685456       1.85048988        9       0.04628333       0.00537361      -0.03043500
H        2.99649276       4.56355021       4.35596666       10      -0.00853184      -0.04376621       0.01050747
H        5.70488964       6.40520042       4.40939263       11       0.09180568      -0.04747801      -0.07253872
H        9.66878169       8.63262466      10.19313412       12      -0.04016505      -0.11406086      -0.05461676
H        6.13856332       3.00863139      10.08697422       13      -0.02587655      -0.07849292      -0.02566033
H        4.40295669       2.23787170       5.69491234       14      -0.11935174       0.08519997      -0.19946086
H        7.12516635       9.23848979       5.54246469       15       0.02364093      -0.06648886      -0.22611445
H       10.32037459       9.13009680      12.85310412       16      -0.12233339      -0.07302164       0.12653811
H        7.96875085       3.83359927      10.61880705       17       0.17250320       0.07047800       0.22780338
C        7.62917405       7.98419846       8.63746278       18       0.20453686       0.16954944      -0.00117855
C        7.73059259       5.58454419       6.00371356       19      -0.10942413       0.06523527       0.09603533
C        4.48579620       3.20732369       8.20438235       20      -0.07973485      -0.16598257       0.03331567
C        4.30653421       5.58446748      10.80782438       21      -0.19325477      -0.08783967      -0.43872607
C        4.31801974       5.62665597      12.28966123       22       0.08410537       0.01730800      -0.08409511
C        9.77828330       6.08928849      12.98064931       23      -0.11088499       0.08327731       0.13962984
C        9.77178230       6.14310283      14.36470125       24       0.18960607      -0.09567860      -0.10823570
C        4.31592175       5.69868925      15.07789475       25       0.08965680      -0.02866942       0.00177930
C        5.44313231       5.21598247      14.38631065       26      -0.30682302       0.19646251      -0.04532366
C        5.44780556       5.19802034      12.99698491       27       0.14648682      -0.08782445       0.07600006
C        6.47727912       5.90266712       2.44898750       28       0.19753243      -0.10068904       0.10067561
C        7.55317533       5.34649836       1.73594053       29      -0.06624487       0.01146974      -0.23507223
C        2.08955439       4.85378720       2.42186778       30      -0.13190767       0.03473397       0.07320286
C        2.13733416       4.93750713       3.80220837       31       0.07492913       0.02526005       0.05254123
C        7.65773570       5.49749515       4.51991156       32       0.10225583      -0.00563062       0.04002407
C        6.52873946       5.97015329       3.83699947       33      -0.24009524       0.08713441       0.04175216
C        7.61812931       9.48232688       8.56346398       34      -0.07471866      -0.29056799       0.07165885
C        8.54916965      10.26595152       9.30408528       35       0.31439850       0.31139255       0.23748431
C        6.69121965      10.08426060       7.72230608       36      -0.10527903       0.54306626      -0.01551245
C        9.55275752       9.71080124      10.14860730       37      -0.19923317       0.26191503      -0.13981213
C       10.40823089      10.51801870      10.87457666       38       0.19590902       0.23674449       0.00847504
C        4.54971303       1.72301827       8.32184728       39      -0.10836004      -0.12141111      -0.12252888
C        3.69550316       0.93389662       7.55981793       40       0.01073386      -0.23395881       0.27760080
C        5.47744619       1.13461139       9.22348753       41       0.18284658      -0.12516557       0.05934515
C        6.30865738       1.93492086      10.04997945       42      -0.36912736       0.01686072      -0.24943912
C        7.27894696       1.38129868      10.84563450       43       0.36504403      -0.45024952       0.33737382
C        2.78801159       1.57098567       6.53983588       44      -0.41755778       0.05318999      -0.09125425
C        5.73047358       9.28052700       6.87970904       45       0.02280149      -0.04022681      -0.47552001
C        4.97848242       9.88255313      11.59829392       46      -0.20766959       0.00067746      -0.14397839
C        8.07685946       2.22289018      11.79954054       47      -0.37235007      -0.27159968      -0.23763704
N        4.42968687       5.69954224      16.48131236       48       0.11140792      -0.04685870      -0.33766323
N        7.41459581       5.33499518       0.32795348       49      -0.08684914       0.05286957       0.44760329
O        6.53598027       7.40069781       8.90581165       50      -0.14749601      -0.15866847      -0.04756052
O        8.85702930       5.34719166       6.55739167       51      -0.10231915       0.04316408      -0.18181565
O        3.36255413       3.75172612       8.42452104       52      -0.07653706       0.15646240       0.00910680
O        5.39802355       5.29240410      10.19739689       53      -0.15199532       0.11503993       0.24743116
O        5.56624392       3.81262297       7.91978316       54       0.11690396       0.13840285       0.04264592
O        3.18892824       5.81385948      10.22653410       55       0.32341868       0.09573319       0.28042156
O        8.73025701       7.40104919       8.38375313       56      -0.06281857       0.01690096       0.04880366
O        6.66233254       5.90565354       6.62563243       57       0.14929625      -0.05894689      -0.17137897
O        4.38751931       6.23790476       7.85635873       58      -0.07237892       0.03315987      -0.05828106
O        7.68577086       4.83451038       8.92985348       59      -0.08950824      -0.03876727      -0.22937110
O        3.43016875       2.27995896       5.56542564       60       0.30650437      -0.11166610       0.10123937
O        1.57580483       1.46716099       6.53410390       61       0.18395478      -0.04078144       0.07068866
O        6.19379990       8.95448417       5.64103862       62       0.27915686       0.13891043       0.19058245
O        4.61479023       8.95249268       7.21665983       63      -0.38968137      -0.05739322       0.24416035
O        4.67400436       9.06193069      12.63314912       64       0.03378877      -0.07645491       0.00670505
O        6.12595205      10.01472132      11.22324525       65       0.35441893       0.01184267      -0.01409543
O        8.26334415       3.52784027      11.51815472       66      -0.12156977       0.39425018      -0.44121030
O        8.50765763       1.75202511      12.84058681       67       0.20943549      -0.14281723       0.36079657
68
Lattice="6.5933655 0.0 0.0 2.9817709521035027 10.558937146498323 0.0 2.603650469721318 0.8274297260392466 16.768295119714704" Properties=species:S:1:pos:R:3:spacegroup_kinds:I:1:forces:R:3 spacegroup="P 1" unit_cell=conventional occupancy="_JSON {\"0\": {\"Al\": 1}, \"1\": {\"Al\": 1}, \"2\": {\"H\": 1}, \"3\": {\"H\": 1}, \"4\": {\"H\": 1}, \"5\": {\"H\": 1}, \"6\": {\"H\": 1}, \"7\": {\"H\": 1}, \"8\": {\"H\": 1}, \"9\": {\"H\": 1}, \"10\": {\"H\": 1}, \"11\": {\"H\": 1}, \"12\": {\"H\": 1}, \"13\": {\"H\": 1}, \"14\": {\"H\": 1}, \"15\": {\"H\": 1}, \"16\": {\"H\": 1}, \"17\": {\"H\": 1}, \"18\": {\"C\": 1}, \"19\": {\"C\": 1}, \"20\": {\"C\": 1}, \"21\": {\"C\": 1}, \"22\": {\"C\": 1}, \"23\": {\"C\": 1}, \"24\": {\"C\": 1}, \"25\": {\"C\": 1}, \"26\": {\"C\": 1}, \"27\": {\"C\": 1}, \"28\": {\"C\": 1}, \"29\": {\"C\": 1}, \"30\": {\"C\": 1}, \"31\": {\"C\": 1}, \"32\": {\"C\": 1}, \"33\": {\"C\": 1}, \"34\": {\"C\": 1}, \"35\": {\"C\": 1}, \"36\": {\"C\": 1}, \"37\": {\"C\": 1}, \"38\": {\"C\": 1}, \"39\": {\"C\": 1}, \"40\": {\"C\": 1}, \"41\": {\"C\": 1}, \"42\": {\"C\": 1}, \"43\": {\"C\": 1}, \"44\": {\"C\": 1}, \"45\": {\"C\": 1}, \"46\": {\"C\": 1}, \"47\": {\"C\": 1}, \"48\": {\"N\": 1}, \"49\": {\"N\": 1}, \"50\": {\"O\": 1}, \"51\": {\"O\": 1}, \"52\": {\"O\": 1}, \"53\": {\"O\": 1}, \"54\": {\"O\": 1}, \"55\": {\"O\": 1}, \"56\": {\"O\": 1}, \"57\": {\"O\": 1}, \"58\": {\"O\": 1}, \"59\": {\"O\": 1}, \"60\": {\"O\": 1}, \"61\": {\"O\": 1}, \"62\": {\"O\": 1}, \"63\": {\"O\": 1}, \"64\": {\"O\": 1}, \"65\": {\"O\": 1}, \"66\": {\"O\": 1}, \"67\": {\"O\": 1}}" energy=-489.338134765625 free_energy=-489.338134765625 stress="-0.0009657422779127955 -0.0001379642926622182 0.00031167492852546275 -0.0001379642926622182 0.0007663928554393351 0.0006889834185130894 0.00031167492852546275 0.0006889834185130894 -8.36583276395686e-05" pbc="T T T"
Al       6.02021930       5.63091683       8.40984847        0       0.24996433      -0.02405481       0.13745967
Al       9.34392308       5.59469474       8.38654393        1      -0.08024117      -0.23696379       0.12160502
H        4.35749727       7.15957723       7.51719205        2      -0.00548615      -0.08341560       0.04550776
H        7.66383612       3.95424040       8.50790271        3       0.05247961      -0.07653585       0.04677181
H        8.90536988       6.39868504      12.40836519        4      -0.04041131      -0.01794319      -0.04814273
H        8.91129005       6.51440659      14.92072990        5       0.01627867      -0.02551433      -0.04386690
H        6.29545146       4.86970931      14.96632327        6       0.17966887      -0.08374898       0.05218245
H        6.32022816       4.83611272      12.45859418        7       0.07166763      -0.04366088      -0.07724452
H        5.62443399       6.27817585       1.88448480        8      -0.07465483       0.01591336       0.07288406
H        2.89737377       4.40839762       1.85328609        9       0.17159507      -0.06559996      -0.12083603
H        2.99648465       4.56512433       4.35358674       10       0.05051289      -0.08361290       0.05021645
H        5.70557086       6.40267964       4.41058190       11       0.11916669      -0.04889849      -0.09318677
H        9.67159276       8.63118270      10.19040835       12      -0.04773145      -0.00318845      -0.05597184
H        6.14087998       3.01095742      10.08726332       13      -0.04444195      -0.07437843      -0.04086626
H        4.40464947       2.23757818       5.69779710       14      -0.13091992       0.09837681      -0.22036532
H        7.12630359       9.24129983       5.54244474       15      -0.16466483      -0.13161203      -0.21443185
H       10.32291233       9.13304494      12.85366113       16      -0.37143353      -0.04887932       0.18013176
H        7.96886252       3.83239292      10.61646992       17       0.18991594       0.06312174       0.28540954
C        7.62672933       7.98544245       8.63573237       18       0.21926750      -0.04767178       0.01351062
C        7.72996639       5.58468966       6.00584415       19       0.01303659       0.00328356       0.03148687
C        4.48544845       3.20554943       8.20304550       20      -0.13120112      -0.12620917       0.08377817
C        4.30762664       5.58414669      10.80822809       21      -0.29870811      -0.07363228      -0.59884387
C        4.32018755       5.62705740      12.29031196       22      -0.05522200       0.01879550      -0.17309053
C        9.77664312       6.08706822      12.97846232       23       0.02833951       0.07112813       0.34441176
C        9.77319177       6.14184658      14.36614807       24       0.02243760      -0.05012537      -0.26000971
C        4.31405063       5.69767126      15.08005474       25       0.24129924      -0.09421130      -0.11679424
C        5.44387835       5.21304380      14.38905540       26      -0.42239845       0.24805993      -0.24787581
C        5.44727148       5.19514702      12.99509291       27       0.09937862      -0.02461506       0.41234484
C        6.47515228       5.90120618       2.45191828       28       0.26131573      -0.10209016      -0.18695846
C        7.55368808       5.34806283       1.73315251       29      -0.08424991      -0.02759196      -0.05517241
C        2.08985666       4.85230239       2.42101569       30      -0.29695648       0.14328989       0.13353644
C        2.13724615       4.93525738       3.80197565       31       0.02887726       0.05939463       0.01651056
C        7.65894336       5.49503144       4.52055518       32       0.04840559       0.04713171       0.03041522
C        6.53075641       5.97102480       3.83535862       33      -0.27930826       0.06110156       0.24282536
C        7.61698263       9.47974676       8.56117806       34      -0.00965072      -0.16309559       0.11991674
C        8.55150524      10.26299105       9.30222473       35       0.22240958       0.37951845       0.19332252
C        6.69103916      10.08454894       7.72212937       36      -0.15998818       0.56979918      -0.08265534
C        9.55446238       9.71274887      10.14593915       37      -0.15021604       0.03194088      -0.11999403
C       10.40962215      10.51790004      10.87180928       38       0.22716370       0.33836275       0.09508026
C        4.55209070       1.72100229       8.32326043       39      -0.23643194      -0.09872125      -0.21450512
C        3.69319446       0.93666931       7.55738387       40       0.18148440      -0.40371969       0.42155814
C        5.47821260       1.13183656       9.22512298       41       0.20145664      -0.04918751       0.03371609
C        6.31048094       1.93750196      10.04925142       42      -0.39980310      -0.08281353      -0.24790180
C        7.27933864       1.38416311      10.84691309       43       0.32841569      -0.60493791       0.25314298
C        2.78970704       1.56860149       6.53768428       44      -0.38858509       0.17813224      -0.15253267
C        5.72926324       9.27768384       6.87964495       45       0.16328588       0.05787387      -0.53195322
C        4.98022363       9.88152498      11.59980786       46      -0.31358346       0.05623595      -0.21515235
C        8.07479288       2.22269815      11.79750562       47      -0.23923849      -0.29751906      -0.02000457
N        4.42920011       5.69946978      16.47926084       48       0.08379285      -0.02521150      -0.19794905
N        7.41343140       5.33328953       0.32864848       49      -0.07705669       0.06019699       0.38043302
O        6.53331182       7.39926322       8.90776597       50      -0.05328049      -0.07164329      -0.07766315
O        8.85844179       5.34484087       6.55705375       51      -0.17648479       0.07345769      -0.17354980
O        3.36082626       3.75096894       8.42207664       52       0.00027803       0.09047148       0.00311956
O        5.39904502       5.28994112      10.19577085       53      -0.25424775       0.14424917       0.31608787
O        5.56513230       3.81135560       7.91923492       54       0.15068898       0.16323516       0.03182602
O        3.18643788       5.81494228      10.22374667       55       0.55281711       0.05474536       0.45415345
O        8.72831065       7.39872774       8.38190700       56      -0.16082102       0.10296366       0.06607734
O        6.66297288       5.90538879       6.62809122       57       0.12465605      -0.04209121      -0.17508000
O        4.38680426       6.23638262       7.85714564       58      -0.08979319       0.13654704      -0.10631881
O        7.68686222       4.83367778       8.93215736       59      -0.14329150       0.07417320      -0.19414702
O        3.43223187       2.28249276       5.56316839       60       0.29852057      -0.17693801       0.16732077
O        1.57837903       1.46482596       6.53351627       61       0.11154741      -0.05299857       0.04395896
O        6.19151607       8.95230270       5.63895030       62       0.46765393       0.20651543       0.22090748
O        4.61439933       8.95382743       7.21662551       63      -0.51596689      -0.11764025       0.28294414
O        4.67123486       9.06340867      12.63535891       64       0.33817321      -0.08915627      -0.06544882
O        6.12561416      10.01561145      11.22035655       65       0.38046470      -0.02867310       0.03463733
O        8.26199089       3.52654193      11.51819271       66      -0.14178187       0.46201485      -0.52469349
O        8.50994017       1.75233190      12.84001553       67       0.14183398      -0.11152843       0.23401709
68
Lattice="6.5933655 0.0 0.0 2.9817709521035027 10.558937146498323 0.0 2.603650469721318 0.8274297260392466 16.768295119714704" Properties=species:S:1:pos:R:3:spacegroup_kinds:I:1:forces:R:3 spacegroup="P 1" unit_cell=conventional occupancy="_JSON {\"0\": {\"Al\": 1}, \"1\": {\"Al\": 1}, \"2\": {\"H\": 1}, \"3\": {\"H\": 1}, \"4\": {\"H\": 1}, \"5\": {\"H\": 1}, \"6\": {\"H\": 1}, \"7\": {\"H\": 1}, \"8\": {\"H\": 1}, \"9\": {\"H\": 1}, \"10\": {\"H\": 1}, \"11\": {\"H\": 1}, \"12\": {\"H\": 1}, \"13\": {\"H\": 1}, \"14\": {\"H\": 1}, \"15\": {\"H\": 1}, \"16\": {\"H\": 1}, \"17\": {\"H\": 1}, \"18\": {\"C\": 1}, \"19\": {\"C\": 1}, \"20\": {\"C\": 1}, \"21\": {\"C\": 1}, \"22\": {\"C\": 1}, \"23\": {\"C\": 1}, \"24\": {\"C\": 1}, \"25\": {\"C\": 1}, \"26\": {\"C\": 1}, \"27\": {\"C\": 1}, \"28\": {\"C\": 1}, \"29\": {\"C\": 1}, \"30\": {\"C\": 1}, \"31\": {\"C\": 1}, \"32\": {\"C\": 1}, \"33\": {\"C\": 1}, \"34\": {\"C\": 1}, \"35\": {\"C\": 1}, \"36\": {\"C\": 1}, \"37\": {\"C\": 1}, \"38\": {\"C\": 1}, \"39\": {\"C\": 1}, \"40\": {\"C\": 1}, \"41\": {\"C\": 1}, \"42\": {\"C\": 1}, \"43\": {\"C\": 1}, \"44\": {\"C\": 1}, \"45\": {\"C\": 1}, \"46\": {\"C\": 1}, \"47\": {\"C\": 1}, \"48\": {\"N\": 1}, \"49\": {\"N\": 1}, \"50\": {\"O\": 1}, \"51\": {\"O\": 1}, \"52\": {\"O\": 1}, \"53\": {\"O\": 1}, \"54\": {\"O\": 1}, \"55\": {\"O\": 1}, \"56\": {\"O\": 1}, \"57\": {\"O\": 1}, \"58\": {\"O\": 1}, \"59\": {\"O\": 1}, \"60\": {\"O\": 1}, \"61\": {\"O\": 1}, \"62\": {\"O\": 1}, \"63\": {\"O\": 1}, \"64\": {\"O\": 1}, \"65\": {\"O\": 1}, \"66\": {\"O\": 1}, \"67\": {\"O\": 1}}" energy=-489.33154296875 free_energy=-489.33154296875 stress="-0.0007202950655482709 -0.00047032375005073845 0.000547781412024051 -0.00047032375005073845 0.0006164326332509518 0.000633768446277827 0.000547781412024051 0.000633768446277827 6.18042831774801e-05" pbc="T T T"
Al       6.02178795       5.62902842       8.41186080        0       0.20819375       0.01928768       0.06662893
Al       9.34354295       5.59323760       8.38609265        1      -0.05412535      -0.21105430       0.12728925
H        4.35482152       7.15760297       7.51799619        2       0.00303110      -0.00461647       0.01671132
H        7.66579631       3.95360496       8.50850822        3       0.05577826       0.02455476       0.09917889
H        8.90572936       6.40025195      12.40716222        4       0.04032561      -0.05372333      -0.01814390
H        8.91396974       6.51311929      14.91940535        5      -0.08405976       0.01022708       0.00098501
H        6.29772964       4.86795679      14.96811906        6       0.08576201      -0.04866768       0.01049460
H        6.32258274       4.83792728      12.45912860        7       0.09685526      -0.05149040      -0.10275053
H        5.62723515       6.27838141       1.88367968        8      -0.14979836       0.05077264       0.02904665
H        2.89632242       4.41018440       1.85390136        9       0.24701008      -0.11373395      -0.15824941
H        2.99512047       4.56280883       4.35288001       10       0.04771453      -0.05825387       0.04717383
H        5.70268041       6.40351719       4.41254860       11       0.25059178      -0.11431979      -0.16474441
H        9.66976584       8.62860344      10.19310396       12      -0.06426118       0.15939343      -0.07005505
H        6.13786495       3.01014083      10.08785986       13      -0.04054292      -0.01612636      -0.03258208
H        4.40721927       2.23841837       5.69735687       14      -0.35057291       0.11254254      -0.25768775
H        7.12693317       9.24295423       5.54441029       15      -0.12687193      -0.11708842      -0.21051359
H       10.32040342       9.13343186      12.85504972       16      -0.23592961      -0.05410257       0.14250898
H        7.96917778       3.83214483      10.61812404       17       0.20377056       0.05354627       0.31824705
C        7.62645081       7.98356791       8.63379646       18       0.24962321       0.05736805       0.03808667
C        7.73214256       5.58503741       6.00286198       19      -0.04871851      -0.02013624       0.10251406
C        4.48442332       3.20347326       8.20146472       20      -0.31154466       0.01204850       0.16279529
C        4.31025567       5.58476338      10.80645820       21      -0.44261813      -0.05523650      -0.47972372
C        4.32035402       5.62616610      12.29256325       22       0.07374186      -0.01494799      -0.41624779
C        9.77917087       6.08448382      12.97694197       23      -0.20405614       0.16521053       0.43880209
C        9.77130231       6.13908416      14.36562432       24       0.15772903      -0.09290763      -0.33486295
C        4.31253594       5.69484932      15.07952163       25       0.21288985      -0.07219721       0.01214972
C        5.44146353       5.21127488      14.39183827       26      -0.24288343       0.18862978      -0.44325495
C        5.44866860       5.19559434      12.99252104       27       0.06735098      -0.03287631       0.69812679
C        6.47531819       5.90139531       2.44925191       28       0.39730835      -0.16572686       0.03175926
C        7.55392392       5.34571234       1.73200101       29      -0.14909831       0.03898507       0.04241586
C        2.09101346       4.85044595       2.42248775       30      -0.38628286       0.20466757       0.02772224
C        2.13857897       4.93778386       3.79961368       31       0.00045015       0.01279695       0.13480197
C        7.65633459       5.49458350       4.51870678       32       0.29843134      -0.00892534       0.10599807
C        6.53367431       5.96954623       3.83750039       33      -0.61607718       0.19813013       0.04429658
C        7.61429860       9.47702291       8.56236581       34       0.00513995       0.05546694       0.06258653
C        8.54863504      10.26468557       9.30368898       35       0.27392817       0.29601654       0.21247515
C        6.69084936      10.08709906       7.71994978       36      -0.11445286       0.46573025       0.00638956
C        9.55413904       9.71537418      10.14657806       37      -0.20838857      -0.19885117      -0.14823665
C       10.40970851      10.51731011      10.87313492       38       0.28447706       0.32550848       0.11153666
C        4.55470952       1.72137179       8.32197154       39      -0.26265210      -0.08101439      -0.17505205
C        3.69526907       0.93944347       7.55633070       40       0.19579513      -0.51278090       0.45764604
C        5.48025738       1.13418894       9.22805717       41       0.03546512      -0.13144715      -0.12247657
C        6.30821965       1.93868119      10.04926706       42      -0.18140353      -0.17797248      -0.07894142
C        7.28084606       1.38170095      10.84794223       43       0.16758709      -0.47156024       0.14260572
C        2.79242492       1.56736462       6.53894984       44      -0.66524220       0.22171208      -0.21490666
C        5.72769394       9.27915555       6.87816594       45       0.21783838       0.11192933      -0.43811780
C        4.98200476       9.87906786      11.60197940       46      -0.33359972       0.15996677      -0.28717604
C        8.07267238       2.21970759      11.79642182       47      -0.14115573      -0.23676604       0.06709287
N        4.42995905       5.69752299      16.48138259       48      -0.09496523       0.03870914      -0.22969714
N        7.41134745       5.33554749       0.33028496       49       0.11810870      -0.04896285       0.24287279
O        6.53546875       7.39969416       8.90652610       50      -0.22704241      -0.17695750      -0.04688742
O        8.85906120       5.34390304       6.55609881       51      -0.15166534       0.07900913      -0.20653322
O        3.35798686       3.75327427       8.42472842       52       0.17932911      -0.05861117      -0.04872880
O        5.39790277       5.29046892      10.19301390       53      -0.13484213       0.11453402       0.30993217
O        5.56254866       3.80952133       7.91921540       54       0.22551738       0.22026809       0.01041375
O        3.18826311       5.81484442      10.22372501       55       0.53469062       0.06583094       0.45161170
O        8.72622166       7.39708551       8.38177307       56      -0.04444312       0.06863378       0.02775725
O        6.66475255       5.90337635       6.62610018       57       0.10157973      -0.03211292      -0.14728563
O        4.38620000       6.23727231       7.85909929       58      -0.05460084       0.04212561      -0.08224539
O        7.68721291       4.83631047       8.93216734       59      -0.16564278      -0.06001259      -0.23803096
O        3.42952130       2.28184399       5.56233969       60       0.55083132      -0.18364798       0.19768804
O        1.57792066       1.46246170       6.53460562       61       0.32623699      -0.05212632       0.06391260
O        6.19347156       8.95337721       5.64180592       62       0.41663557       0.15671229       0.12752718
O        4.61432351       8.95470841       7.21799185       63      -0.54308659      -0.12957251       0.26555339
O        4.67200784       9.06521394      12.63772218       64       0.21796343      -0.12825903       0.00440955
O        6.12710712      10.01791869      11.22200585       65       0.34999818      -0.06318048       0.05770910
O        8.26368901       3.52477646      11.51979803       66      -0.18656339       0.45194685      -0.58807766
O        8.51022868       1.75157584      12.83953135       67       0.11950830      -0.13229445       0.22375610
68