76
Lattice="8.09167826 0.0 0.0 4.262217674280284 10.036570384641633 0.0 2.5766187066442745 4.811625698630959 10.02071486050122" Properties=species:S:1:pos:R:3:spacegroup_kinds:I:1:forces:R:3 spacegroup="P 1" unit_cell=conventional occupancy="_JSON {\"0\": {\"Cu\": 1}, \"1\": {\"Cu\": 1}, \"2\": {\"Cu\": 1}, \"3\": {\"Cu\": 1}, \"4\": {\"H\": 1}, \"5\": {\"H\": 1}, \"6\": {\"H\": 1}, \"7\": {\"H\": 1}, \"8\": {\"H\": 1}, \"9\": {\"H\": 1}, \"10\": {\"H\": 1}, \"11\": {\"H\": 1}, \"12\": {\"H\": 1}, \"13\": {\"H\": 1}, \"14\": {\"H\": 1}, \"15\": {\"H\": 1}, \"16\": {\"H\": 1}, \"17\": {\"H\": 1}, \"18\": {\"H\": 1}, \"19\": {\"H\": 1}, \"20\": {\"H\": 1}, \"21\": {\"H\": 1}, \"22\": {\"H\": 1}, \"23\": {\"H\": 1}, \"24\": {\"H\": 1}, \"25\": {\"H\": 1}, \"26\": {\"H\": 1}, \"27\": {\"H\": 1}, \"28\": {\"C\": 1}, \"29\": {\"C\": 1}, \"30\": {\"C\": 1}, \"31\": {\"C\": 1}, \"32\": {\"C\": 1}, \"33\": {\"C\": 1}, \"34\": {\"C\": 1}, \"35\": {\"C\": 1}, \"36\": {\"C\": 1}, \"37\": {\"C\": 1}, \"38\": {\"C\": 1}, \"39\": {\"C\": 1}, \"40\": {\"C\": 1}, \"41\": {\"C\": 1}, \"42\": {\"C\": 1}, \"43\": {\"C\": 1}, \"44\": {\"C\": 1}, \"45\": {\"C\": 1}, \"46\": {\"C\": 1}, \"47\": {\"C\": 1}, \"48\": {\"C\": 1}, \"49\": {\"C\": 1}, \"50\": {\"C\": 1}, \"51\": {\"C\": 1}, \"52\": {\"C\": 1}, \"53\": {\"C\": 1}, \"54\": {\"C\": 1}, \"55\": {\"C\": 1}, \"56\": {\"C\": 1}, \"57\": {\"C\": 1}, \"58\": {\"C\": 1}, \"59\": {\"C\": 1}, \"60\": {\"C\": 1}, \"61\": {\"C\": 1}, \"62\": {\"C\": 1}, \"63\": {\"C\": 1}, \"64\": {\"Br\": 1}, \"65\": {\"Br\": 1}, \"66\": {\"N\": 1}, \"67\": {\"N\": 1}, \"68\": {\"N\": 1}, \"69\": {\"N\": 1}, \"70\": {\"N\": 1}, \"71\": {\"N\": 1}, \"72\": {\"N\": 1}, \"73\": {\"N\": 1}, \"74\": {\"N\": 1}, \"75\": {\"N\": 1}}" energy=-518.6944580078125 free_energy=-518.6944580078125 stress="-0.002416911767795682 0.0005636826390400529 0.000250580080319196 0.0005636826390400529 -0.0004609579045791179 0.001456527505069971 0.000250580080319196 0.001456527505069971 0.00450053671374917" pbc="T T T"
Cu       4.55874440       6.06986165       3.17079049        0       0.11485890      -0.41367388       0.24016716
Cu      10.37168664       8.77862418       6.84975750        1      -0.11833818       0.41520044      -0.24647985
Cu       7.31586242       5.02572911       3.49791910        2       0.11491647      -0.06678624       0.34906590
Cu       7.61474533       9.82242444       6.52306170        3      -0.11531758       0.06676172      -0.34963202
H        2.86149175       3.42692805       3.83403810        4      -0.02964045      -0.02216654       0.12095281
H       12.06911330      11.42132617       6.18641510        5       0.02714631       0.01779675      -0.12441866
H        6.75131605      13.52938898       8.13242997        6      -0.00504775       0.02098519       0.00198822
H        8.17920559       1.31875926       1.88828347        7       0.00565635      -0.01935010      -0.00238883
H        8.95202264      11.54422132       4.03597716        8      -0.03981540      -0.00061235      -0.06385566
H        5.97842921       3.30404064       5.98460893        9       0.03091480      -0.00966635       0.05853536
H        6.33267054      12.36072045       5.93940797       10       0.00467206      -0.00205843      -0.00634901
H        8.59781206       2.48746702       4.08130042       11      -0.01325898      -0.01413558       0.00535713
H        4.55833548       1.31740937       1.56677816       12      -0.00514241      -0.02898858      -0.02438241
H       10.37224616      13.53088436       8.45404668       13       0.00500445       0.02856988       0.02539989
H        7.30617979       9.58615149       0.56014778       14       0.02004027       0.02916263       0.02384044
H        7.62441098       5.26205758       9.46058127       15      -0.02016502      -0.02952886      -0.02794878
H        3.71557927       5.66396511       8.12421651       16       0.04187322       0.05633857      -0.05467340
H       11.21508760       9.18442342       1.89630405       17      -0.04166160      -0.05647878       0.05641726
H        6.04306921       8.06118218       2.11862445       18      -0.00211511       0.08806482       0.07933654
H        8.88748063       6.78691352       7.90198471       19       0.00387140      -0.08540227      -0.07876003
H        6.73066040       7.88485541       9.05049942       20      -0.04891978      -0.06929669      -0.03894929
H        8.19986483       6.96341095       0.97024848       21       0.04712492       0.06915998       0.03844227
H        3.30868637       3.35140195       1.37357285       22      -0.08077062      -0.02479762      -0.00568885
H       11.62190602      11.49682262       8.64715836       23       0.08020153       0.02507998       0.00515933
H        8.89836120       3.65315082       1.71653231       24       0.06341297      -0.05421268      -0.04267447
H        6.03200954      11.19514537       8.30424639       25      -0.06271958       0.05331001       0.03913878
H       10.01486203       8.59385130       9.75470504       26      -0.02609271      -0.03686850       0.01406047
H        4.91560925       6.25435908       0.26599011       27       0.02766286       0.03687611      -0.01386391
C        3.02376189       3.89119768       4.80903815       28       0.01981608      -0.03329127      -0.24341929
C       11.90681402      10.95700056       5.21133672       29      -0.04188556       0.00279665       0.25273949
C        2.81802221       3.93872370       7.19377922       30      -0.11848222      -0.20975237      -0.10441408
C       12.11255975      10.90960046       2.82698881       31       0.10674681       0.18733257       0.08593363
C        8.31187881      10.78941726       3.57299639       32       0.15996756       0.14868963       0.06093176
C        6.61824731       4.05843876       6.44757235       33      -0.14085634      -0.12711820      -0.04842335
C        2.57500894       3.28787994       5.97863922       34       0.12750934       0.18880124       0.08625901
C       12.35512059      11.55981735       4.04188294       35      -0.10358948      -0.14788945      -0.07428909
C        8.23472382      10.67617670       2.18577053       36      -0.05748165       0.01185062       0.16089012
C        6.69581929       4.17201896       7.83494177       37       0.05497845      -0.01468108      -0.16682310
C        7.40741732       9.69083391       1.64081123       38       0.04786327       0.00358041      -0.10463801
C        7.52320836       5.15734520       8.37979320       39      -0.04904421      -0.00397251       0.10612111
C        4.74078045       6.88858674       5.85270312       40      -0.07004863      -0.20616937       0.06640655
C       10.18954037       7.95907574       4.16826175       41       0.09791702       0.23563549      -0.09792256
C        5.21453714       7.82222660       6.79556090       42      -0.28223556      -0.26559347       0.44855288
C        9.71647332       7.02647838       3.22435287       43       0.25258052       0.24042720      -0.40574211
C        3.93495629       5.68972147       5.97080980       44      -0.06146178       0.07560307       0.03442763
C       10.99559217       9.15841105       4.04985537       45       0.04720497      -0.09735826      -0.05616091
C        6.83216626       9.02541337       3.87617453       46       0.02045929      -0.08498435      -0.04329848
C        8.09837680       5.82271236       6.14449348       47      -0.01563072       0.09535503       0.02634114
C        6.09560356       8.25217960       4.85471965       48       0.08827265       0.32095060      -0.31047162
C        8.83508513       6.59680981       5.16526714       49      -0.12364830      -0.36865556       0.34377253
C        3.49581110       5.14854087       7.19157723       50       0.05461253       0.02248413      -0.07235403
C       11.43472726       9.69965854       2.82912595       51      -0.05109666      -0.01922936       0.06332049
C        6.70459733       8.84581786       2.49146846       52      -0.02966129      -0.06104395       0.22774577
C        8.22595457       6.00244575       7.52904619       53       0.02895967       0.05731544      -0.22531798
C        4.77374534       8.02806680       8.18064972       54      -0.06733450      -0.03410919      -0.18767279
C       10.15671950       6.82009213       1.83992101       55       0.06471774       0.04123766       0.16848525
C        5.66730948       8.00705627       9.25420188       56       0.03725255       0.02975741      -0.03234486
C        9.26315696       6.84113687       0.76654179       57      -0.04297118      -0.03099464       0.02771871
C        2.61458885       3.34434870       0.53419013       58      -0.21446700      -0.00898908      -0.00467119
C       12.31595115      11.50384257       9.48654617       59       0.21429792       0.00931901       0.00500726
C        9.33505763       3.51018720       0.72631213       60       0.03541422      -0.02550291      -0.02703604
C        5.59542473      11.33799397       9.29441294       61      -0.03825624       0.02545092       0.01825300
C       11.07877422       8.38559364       9.63625412       62       0.00583011       0.06022380      -0.15452760
C        3.85173753       6.46265973       0.38435102       63      -0.00327444      -0.06018857       0.12510586
Br       5.80363538       4.04866130       2.10233161       64      -0.11952055       0.10275938      -0.10133772
Br       9.12707505      10.79938838       7.91851916       65       0.11941609      -0.10238205       0.10145535
N        5.30305178       7.18618228       4.62985515       66      -0.15279348       0.11777975       0.31041041
N        9.62754816       7.66195753       5.39068070       67       0.15707622      -0.10559964      -0.30335498
N        6.10193050       8.64581351       6.16636623       68       0.29620114       0.10941545      -0.46962222
N        8.82856508       6.20238365       3.85437359       69      -0.27911326      -0.09195704       0.44095790
N        7.62733887       9.99510857       4.40549022       70      -0.19458066      -0.11652385       0.11251661
N        7.30303214       4.85303620       5.61530576       71       0.19551899       0.11659361      -0.11372149
N        3.69050796       5.05524675       4.79149034       72       0.21226631       0.16469511       0.26177663
N       11.23917830       9.79244277       5.22826492       73      -0.18434064      -0.11909923      -0.22271693
N       11.52859361       8.26619197       8.36557018       74       0.23295328      -0.24561600       0.66866636
N        3.40138567       6.58259028       1.65368507       75      -0.21441033       0.23936439      -0.61131221
76
Lattice="8.09167826 0.0 0.0 4.262217674280284 10.036570384641633 0.0 2.5766187066442745 4.811625698630959 10.02071486050122" Properties=species:S:1:pos:R:3:spacegroup_kinds:I:1:forces:R:3 spacegroup="P 1" unit_cell=conventional occupancy="_JSON {\"0\": {\"Cu\": 1}, \"1\": {\"Cu\": 1}, \"2\": {\"Cu\": 1}, \"3\": {\"Cu\": 1}, \"4\": {\"H\": 1}, \"5\": {\"H\": 1}, \"6\": {\"H\": 1}, \"7\": {\"H\": 1}, \"8\": {\"H\": 1}, \"9\": {\"H\": 1}, \"10\": {\"H\": 1}, \"11\": {\"H\": 1}, \"12\": {\"H\": 1}, \"13\": {\"H\": 1}, \"14\": {\"H\": 1}, \"15\": {\"H\": 1}, \"16\": {\"H\": 1}, \"17\": {\"H\": 1}, \"18\": {\"H\": 1}, \"19\": {\"H\": 1}, \"20\": {\"H\": 1}, \"21\": {\"H\": 1}, \"22\": {\"H\": 1}, \"23\": {\"H\": 1}, \"24\": {\"H\": 1}, \"25\": {\"H\": 1}, \"26\": {\"H\": 1}, \"27\": {\"H\": 1}, \"28\": {\"C\": 1}, \"29\": {\"C\": 1}, \"30\": {\"C\": 1}, \"31\": {\"C\": 1}, \"32\": {\"C\": 1}, \"33\": {\"C\": 1}, \"34\": {\"C\": 1}, \"35\": {\"C\": 1}, \"36\": {\"C\": 1}, \"37\": {\"C\": 1}, \"38\": {\"C\": 1}, \"39\": {\"C\": 1}, \"40\": {\"C\": 1}, \"41\": {\"C\": 1}, \"42\": {\"C\": 1}, \"43\": {\"C\": 1}, \"44\": {\"C\": 1}, \"45\": {\"C\": 1}, \"46\": {\"C\": 1}, \"47\": {\"C\": 1}, \"48\": {\"C\": 1}, \"49\": {\"C\": 1}, \"50\": {\"C\": 1}, \"51\": {\"C\": 1}, \"52\": {\"C\": 1}, \"53\": {\"C\": 1}, \"54\": {\"C\": 1}, \"55\": {\"C\": 1}, \"56\": {\"C\": 1}, \"57\": {\"C\": 1}, \"58\": {\"C\": 1}, \"59\": {\"C\": 1}, \"60\": {\"C\": 1}, \"61\": {\"C\": 1}, \"62\": {\"C\": 1}, \"63\": {\"C\": 1}, \"64\": {\"Br\": 1}, \"65\": {\"Br\": 1}, \"66\": {\"N\": 1}, \"67\": {\"N\": 1}, \"68\": {\"N\": 1}, \"69\": {\"N\": 1}, \"70\": {\"N\": 1}, \"71\": {\"N\": 1}, \"72\": {\"N\": 1}, \"73\": {\"N\": 1}, \"74\": {\"N\": 1}, \"75\": {\"N\": 1}}" energy=-518.6814575195312 free_energy=-518.6814575195312 stress="-0.002504634438082576 0.00037966141826473176 0.0003156652965117246 0.00037966141826473176 -0.0006383043946698308 0.0017260847380384803 0.0003156652965117246 0.0017260847380384803 0.004786732606589794" pbc="T T T"
Cu       4.55821367       6.07177312       3.16968075        0       0.11831512      -0.42264211       0.24691613
Cu      10.37191170       8.77783452       6.85022628        1      -0.11950110       0.41964263      -0.24709603
Cu       7.31530865       5.02605095       3.49623700        2       0.12448858      -0.06238906       0.35876518
Cu       7.61493977       9.82231187       6.52365122        3      -0.11924928       0.06498848      -0.35429144
H        2.86154747       3.42696972       3.83381072        4      -0.02709532      -0.01099502       0.15354139
H       12.06907042      11.42129805       6.18661165        5       0.02683159       0.01260925      -0.14402774
H        6.75132190      13.52936465       8.13242767        6      -0.00210026       0.02611186       0.00157809
H        8.17919494       1.31879571       1.88828797        7       0.00481756      -0.02155032      -0.00186445
H        8.95207020      11.54422205       4.03605343        8      -0.04288182      -0.00417794      -0.06897242
H        5.97829052       3.30408401       5.98434632        9       0.03874129      -0.00094233       0.06579775
H        6.33265598      12.36072687       5.93942776       10       0.00123902      -0.00875962      -0.00533528
H        8.59784848       2.48750585       4.08128570       11      -0.01075330      -0.00899042       0.00542513
H        4.55834310       1.31745233       1.56681430       12      -0.00300240      -0.02695048      -0.02781448
H       10.37223836      13.53083983       8.45400709       13       0.00399739       0.02810219       0.02670795
H        7.30612996       9.58607897       0.56008850       14       0.02079352       0.02966121       0.02680328
H        7.62445053       5.26211549       9.46063608       15      -0.02150346      -0.03102779      -0.03213212
H        3.71551755       5.66388208       8.12429709       16       0.04298670       0.06028787      -0.04930809
H       11.21523843       9.18462789       1.89609980       17      -0.04279906      -0.05863895       0.05743989
H        6.04307582       8.06090687       2.11837643       18       0.00292039       0.09457617       0.08139078
H        8.88747612       6.78701295       7.90207641       19       0.00238883      -0.08748212      -0.07618891
H        6.73082025       7.88508185       9.05062669       20      -0.05354944      -0.06961998      -0.03994080
H        8.19971215       6.96318687       0.97012393       21       0.05017979       0.06935042       0.04104520
H        3.30895580       3.35148467       1.37359182       22      -0.07816803      -0.02458496      -0.00367823
H       11.62176771      11.49677937       8.64714946       23       0.06583171       0.02470159      -0.00688552
H        8.89802212       3.65344071       1.71676050       24       0.06983650      -0.05628409      -0.05160297
H        6.03224856      11.19494221       8.30409724       25      -0.06569416       0.05405886       0.04203711
H       10.01498601       8.59402648       9.75463823       26      -0.03004853      -0.03737668       0.01776513
H        4.91556875       6.25430510       0.26601040       27       0.02920566       0.03795433      -0.01696386
C        3.02367835       3.89133804       4.81006441       28       0.00822191      -0.06520416      -0.31753904
C       11.90691049      10.95699412       5.21075458       29      -0.03230968       0.02485666       0.30104330
C        2.81849891       3.93956762       7.19419933       30      -0.15378320      -0.27443299      -0.12517856
C       12.11239704      10.90931492       2.82685783       31       0.12082304       0.21238799       0.09465905
C        8.31174369      10.78929166       3.57294492       32       0.18927975       0.18023598       0.03967346
C        6.61845666       4.05862769       6.44764432       33      -0.16182260      -0.14991879      -0.04727387
C        2.57484686       3.28763995       5.97852957       34       0.13795178       0.21535541       0.13472775
C       12.35527367      11.56003590       4.04199272       35      -0.10941201      -0.16146606      -0.10253551
C        8.23480225      10.67616053       2.18555099       36      -0.06249145       0.00880280       0.16619270
C        6.69578396       4.17202839       7.83504896       37       0.05651316      -0.01521135      -0.17362899
C        7.40739726       9.69083241       1.64085508       38       0.05543775       0.01184427      -0.12035984
C        7.52325695       5.15734913       8.37968807       39      -0.05727360      -0.01327167       0.13411385
C        4.74111657       6.88957600       5.85238448       40      -0.11364654      -0.28184587       0.05717897
C       10.18944117       7.95883702       4.16836096       41       0.10325587       0.26698834      -0.05494565
C        5.21457692       7.82226403       6.79549768       42      -0.29967156      -0.27052653       0.48313689
C        9.71538815       7.02544543       3.22609607       43       0.34977534       0.30085331      -0.54513872
C        3.93506982       5.68958183       5.97074621       44      -0.05350730       0.09714402       0.02510577
C       10.99536610       9.15887732       4.05012434       45       0.04350418      -0.11958939      -0.06139706
C        6.83211842       9.02561211       3.87627578       46       0.00991661      -0.10600884      -0.01675811
C        8.09840213       5.82255785       6.14445080       47      -0.00526953       0.10937291       0.02140531
C        6.09512842       8.25045204       4.85639081       48       0.17696311       0.42323703      -0.42075887
C        8.83533934       6.59756774       5.16456036       49      -0.16770929      -0.41608804       0.40024373
C        3.49553993       5.14842923       7.19193648       50       0.08089594       0.05865677      -0.09183329
C       11.43482996       9.69969719       2.82899868       51      -0.06083345      -0.02678921       0.07416704
C        6.70463261       8.84589046       2.49119761       52      -0.04148884      -0.07239727       0.25881082
C        8.22586462       6.00226774       7.52974600       53       0.04092479       0.07084925      -0.27376232
C        4.77395915       8.02817510       8.18124563       54      -0.09272248      -0.04045693      -0.22675964
C       10.15663967       6.82004126       1.83971316       55       0.06991288       0.04361214       0.21498238
C        5.66727030       8.00702497       9.25423590       56       0.05819477       0.02979113      -0.01966697
C        9.26316529       6.84114288       0.76653642       57      -0.06119402      -0.02903888       0.02720200
C        2.61506001       3.34436845       0.53420040       58      -0.23909268      -0.00650347       0.00080837
C       12.31489127      11.50379648       9.48652141       59       0.28187698       0.00424987       0.00802826
C        9.33503456       3.51020382       0.72632975       60       0.05090972      -0.02704062      -0.00978816
C        5.59557268      11.33789554       9.29434235       61      -0.08143003       0.03155258       0.01064336
C       11.07875354       8.38538005       9.63680217       62       0.00870746       0.06292689      -0.19438347
C        3.85175330       6.46294955       0.38374862       63      -0.00473315      -0.06346621       0.16028307
Br       5.80370589       4.04860068       2.10239139       64      -0.12375453       0.10095841      -0.10502975
Br       9.12682269      10.79960475       7.91830476       65       0.12154688      -0.10153275       0.10342813
N        5.30374277       7.18564964       4.62845136       66      -0.17741613       0.10793711       0.37640959
N        9.62691656       7.66238214       5.39190047       67       0.17209733      -0.10639618      -0.35931090
N        6.10154993       8.64567293       6.16696961       68       0.31425062       0.11502182      -0.47635800
N        8.82931506       6.20263074       3.85318874       69      -0.34885120      -0.14056432       0.52205837
N        7.62811265       9.99557194       4.40504278       70      -0.24019191      -0.16414079       0.13750243
N        7.30288053       4.85294579       5.61539394       71       0.21099150       0.13305642      -0.12294787
N        3.69021403       5.05501870       4.79112785       72       0.22992910       0.19661863       0.29443657
N       11.23960096       9.79271584       5.22877557       73      -0.20014291      -0.14099135      -0.24509653
N       11.52845355       8.26633964       8.36516816       74       0.24203238      -0.24769005       0.70737958
N        3.40150796       6.58245376       1.65403374       75      -0.23139252       0.24462864      -0.64228106
76
Lattice="8.09167826 0.0 0.0 4.262217674280284 10.036570384641633 0.0 2.5766187066442745 4.811625698630959 10.02071486050122" Properties=species:S:1:pos:R:3:spacegroup_kinds:I:1:forces:R:3 spacegroup="P 1" unit_cell=conventional occupancy="_JSON {\"0\": {\"Cu\": 1}, \"1\": {\"Cu\": 1}, \"2\": {\"Cu\": 1}, \"3\": {\"Cu\": 1}, \"4\": {\"H\": 1}, \"5\": {\"H\": 1}, \"6\": {\"H\": 1}, \"7\": {\"H\": 1}, \"8\": {\"H\": 1}, \"9\": {\"H\": 1}, \"10\": {\"H\": 1}, \"11\": {\"H\": 1}, \"12\": {\"H\": 1}, \"13\": {\"H\": 1}, \"14\": {\"H\": 1}, \"15\": {\"H\": 1}, \"16\": {\"H\": 1}, \"17\": {\"H\": 1}, \"18\": {\"H\": 1}, \"19\": {\"H\": 1}, \"20\": {\"H\": 1}, \"21\": {\"H\": 1}, \"22\": {\"H\": 1}, \"23\": {\"H\": 1}, \"24\": {\"H\": 1}, \"25\": {\"H\": 1}, \"26\": {\"H\": 1}, \"27\": {\"H\": 1}, \"28\": {\"C\": 1}, \"29\": {\"C\": 1}, \"30\": {\"C\": 1}, \"31\": {\"C\": 1}, \"32\": {\"C\": 1}, \"33\": {\"C\": 1}, \"34\": {\"C\": 1}, \"35\": {\"C\": 1}, \"36\": {\"C\": 1}, \"37\": {\"C\": 1}, \"38\": {\"C\": 1}, \"39\": {\"C\": 1}, \"40\": {\"C\": 1}, \"41\": {\"C\": 1}, \"42\": {\"C\": 1}, \"43\": {\"C\": 1}, \"44\": {\"C\": 1}, \"45\": {\"C\": 1}, \"46\": {\"C\": 1}, \"47\": {\"C\": 1}, \"48\": {\"C\": 1}, \"49\": {\"C\": 1}, \"50\": {\"C\": 1}, \"51\": {\"C\": 1}, \"52\": {\"C\": 1}, \"53\": {\"C\": 1}, \"54\": {\"C\": 1}, \"55\": {\"C\": 1}, \"56\": {\"C\": 1}, \"57\": {\"C\": 1}, \"58\": {\"C\": 1}, \"59\": {\"C\": 1}, \"60\": {\"C\": 1}, \"61\": {\"C\": 1}, \"62\": {\"C\": 1}, \"63\": {\"C\": 1}, \"64\": {\"Br\": 1}, \"65\": {\"Br\": 1}, \"66\": {\"N\": 1}, \"67\": {\"N\": 1}, \"68\": {\"N\": 1}, \"69\": {\"N\": 1}, \"70\": {\"N\": 1}, \"71\": {\"N\": 1}, \"72\": {\"N\": 1}, \"73\": {\"N\": 1}, \"74\": {\"N\": 1}, \"75\": {\"N\": 1}}" energy=-518.6624755859375 free_energy=-518.6624755859375 stress="-0.002606734400615096 0.00016741774743422866 0.0004741725861094892 0.00016741774743422866 -0.0008614144753664732 0.0020519779063761234 0.0004741725861094892 0.0020519779063761234 0.00501174246892333" pbc="T T T"
Cu       4.55773711       6.07347544       3.16868622        0       0.12833169      -0.43197313       0.26519525
Cu      10.37239107       8.77615116       6.85121748        1      -0.12486114       0.42850780      -0.25731248
Cu       7.31481446       5.02629862       3.49481278        2       0.13272741      -0.05791947       0.36872727
Cu       7.61523054       9.82215341       6.52451510        3      -0.12273054       0.06416918      -0.36020160
H        2.86162788       3.42700235       3.83335507        4      -0.02476125      -0.00272339       0.17279045
H       12.06899756      11.42126382       6.18700272        5       0.02345488      -0.00094593      -0.18351072
H        6.75132995      13.52926462       8.13242162        6       0.00433453       0.03768666      -0.00141090
H        8.17917761       1.31887320       1.88829468        7       0.00345261      -0.02414772      -0.00108084
H        8.95221499      11.54423615       4.03628631        8      -0.06029854      -0.02406192      -0.08466610
H        5.97827699       3.30408434       5.98432335        9       0.04932097       0.01099975       0.07561722
H        6.33265386      12.36074186       5.93943689       10      -0.01307405      -0.03544879      -0.00505414
H        8.59789507       2.48754480       4.08126220       11      -0.00779925      -0.00280024       0.00597721
H        4.55834448       1.31746469       1.56682705       12       0.00077839      -0.02345280      -0.03306953
H       10.37222786      13.53076605       8.45393698       13      -0.00315668       0.02110347       0.03658847
H        7.30607977       9.58600738       0.56002381       14       0.02140384       0.03065042       0.04589827
H        7.62450972       5.26220089       9.46072452       15      -0.02129862      -0.03071660      -0.04030384
H        3.71550022       5.66385776       8.12431698       16       0.04460658       0.06358016      -0.04959548
H       11.21543301       9.18489449       1.89583866       17      -0.04364436      -0.06050253       0.05745324
H        6.04307130       8.06076045       2.11825043       18       0.00588239       0.09823395       0.08103615
H        8.88747339       6.78711291       7.90216346       19       0.00063227      -0.09001386      -0.07603766
H        6.73090459       7.88519150       9.05068960       20      -0.05959971      -0.06942272      -0.04076270
H        8.19958554       6.96301190       0.97002037       21       0.06266856       0.06943138       0.04162510
H        3.30906753       3.35151981       1.37359708       22      -0.07070136      -0.02432512       0.00222044
H       11.62155117      11.49669812       8.64717211       23       0.05767385       0.02437792      -0.01347988
H        8.89776993       3.65364396       1.71694684       24       0.07352854      -0.05767080      -0.05870634
H        6.03239653      11.19482045       8.30400255       25      -0.06693649       0.05500738       0.04607227
H       10.01506070       8.59411939       9.75459408       26      -0.03246325      -0.03754304       0.01992846
H        4.91548366       6.25419452       0.26605983       27       0.03153402       0.03818902      -0.02016856
C        3.02366903       3.89141191       4.81042415       28      -0.01146612      -0.10305452      -0.35107726
C       11.90703262      10.95690016       5.20961669       29      -0.02640798       0.04947737       0.39085549
C        2.81930067       3.94099840       7.19485195       30      -0.21196207      -0.38699543      -0.18262011
C       12.11222732      10.90901657       2.82672485       31       0.13573378       0.23996997       0.10267867
C        8.31109425      10.78867326       3.57280880       32       0.25801480       0.25522923       0.02006178
C        6.61893074       4.05906690       6.44778282       33      -0.20876341      -0.19973820      -0.02130961
C        2.57430511       3.28679422       5.97800048       34       0.18164642       0.30348417       0.20004405
C       12.35544562      11.56028965       4.04215386       35      -0.11189139      -0.17341095      -0.14758681
C        8.23494180      10.67614087       2.18517986       36      -0.07668519      -0.00180070       0.18077907
C        6.69556505       4.17208731       7.83572154       37       0.07098366      -0.00480789      -0.20406449
C        7.40712398       9.69077403       1.64144840       38       0.07462759       0.03085468      -0.18067381
C        7.52333934       5.15736823       8.37949513       39      -0.06684896      -0.02175027       0.16699050
C        4.74141747       6.89032225       5.85223309       40      -0.15700807      -0.34618723       0.05415213
C       10.18921299       7.95824699       4.16848238       41       0.12544006       0.31299692      -0.03295368
C        5.21572389       7.82329944       6.79364852       42      -0.38994715      -0.31568140       0.64604264
C        9.71515111       7.02524154       3.22646551       43       0.36688435       0.31179598      -0.58567047
C        3.93521507       5.68931811       5.97067805       44      -0.04297093       0.12308203       0.01035500
C       10.99533428       9.15896478       4.05016924       45       0.03584126      -0.13544126      -0.05366206
C        6.83210085       9.02579988       3.87630547       46      -0.01289789      -0.14121851       0.02603948
C        8.09840680       5.82246078       6.14443180       47       0.00425985       0.12592378      -0.00441289
C        6.09423341       8.24831146       4.85851886       48       0.30203652       0.56296438      -0.57593715
C        8.83589443       6.59894492       5.16323563       49      -0.24886450      -0.50157875       0.50397539
C        3.49549891       5.14839948       7.19198306       50       0.10832076       0.10201134      -0.08797507
C       11.43495582       9.69975262       2.82884524       51      -0.07001054      -0.03819677       0.08183916
C        6.70468458       8.84598115       2.49087338       52      -0.06139802      -0.09185381       0.30948564
C        8.22583884       6.00222310       7.52991846       53       0.05021033       0.07983688      -0.30329716
C        4.77404719       8.02821352       8.18146094       54      -0.10080854      -0.04231843      -0.28538999
C       10.15649933       6.81995371       1.83928163       55       0.10443173       0.04350173       0.26801050
C        5.66712551       8.00695086       9.25428483       56       0.07471409       0.02805869      -0.02229799