108
Lattice="8.29262998 0.0 0.0 -1.5384750830404124 10.366989295031878 0.0 -0.982479296122758 -2.487757836220027 12.840633307777123" Properties=species:S:1:pos:R:3:spacegroup_kinds:I:1:forces:R:3 spacegroup="P 1" unit_cell=conventional occupancy="_JSON {\"0\": {\"Cd\": 1}, \"1\": {\"Cd\": 1}, \"2\": {\"Cd\": 1}, \"3\": {\"Cd\": 1}, \"4\": {\"H\": 1}, \"5\": {\"H\": 1}, \"6\": {\"H\": 1}, \"7\": {\"H\": 1}, \"8\": {\"H\": 1}, \"9\": {\"H\": 1}, \"10\": {\"H\": 1}, \"11\": {\"H\": 1}, \"12\": {\"H\": 1}, \"13\": {\"H\": 1}, \"14\": {\"H\": 1}, \"15\": {\"H\": 1}, \"16\": {\"H\": 1}, \"17\": {\"H\": 1}, \"18\": {\"H\": 1}, \"19\": {\"H\": 1}, \"20\": {\"H\": 1}, \"21\": {\"H\": 1}, \"22\": {\"H\": 1}, \"23\": {\"H\": 1}, \"24\": {\"H\": 1}, \"25\": {\"H\": 1}, \"26\": {\"H\": 1}, \"27\": {\"H\": 1}, \"28\": {\"H\": 1}, \"29\": {\"H\": 1}, \"30\": {\"H\": 1}, \"31\": {\"H\": 1}, \"32\": {\"H\": 1}, \"33\": {\"H\": 1}, \"34\": {\"H\": 1}, \"35\": {\"H\": 1}, \"36\": {\"H\": 1}, \"37\": {\"H\": 1}, \"38\": {\"H\": 1}, \"39\": {\"H\": 1}, \"40\": {\"C\": 1}, \"41\": {\"C\": 1}, \"42\": {\"C\": 1}, \"43\": {\"C\": 1}, \"44\": {\"C\": 1}, \"45\": {\"C\": 1}, \"46\": {\"C\": 1}, \"47\": {\"C\": 1}, \"48\": {\"C\": 1}, \"49\": {\"C\": 1}, \"50\": {\"C\": 1}, \"51\": {\"C\": 1}, \"52\": {\"C\": 1}, \"53\": {\"C\": 1}, \"54\": {\"C\": 1}, \"55\": {\"C\": 1}, \"56\": {\"C\": 1}, \"57\": {\"C\": 1}, \"58\": {\"C\": 1}, \"59\": {\"C\": 1}, \"60\": {\"C\": 1}, \"61\": {\"C\": 1}, \"62\": {\"C\": 1}, \"63\": {\"C\": 1}, \"64\": {\"C\": 1}, \"65\": {\"C\": 1}, \"66\": {\"C\": 1}, \"67\": {\"C\": 1}, \"68\": {\"C\": 1}, \"69\": {\"C\": 1}, \"70\": {\"C\": 1}, \"71\": {\"C\": 1}, \"72\": {\"C\": 1}, \"73\": {\"C\": 1}, \"74\": {\"C\": 1}, \"75\": {\"C\": 1}, \"76\": {\"C\": 1}, \"77\": {\"C\": 1}, \"78\": {\"C\": 1}, \"79\": {\"C\": 1}, \"80\": {\"C\": 1}, \"81\": {\"C\": 1}, \"82\": {\"N\": 1}, \"83\": {\"N\": 1}, \"84\": {\"N\": 1}, \"85\": {\"N\": 1}, \"86\": {\"O\": 1}, \"87\": {\"O\": 1}, \"88\": {\"O\": 1}, \"89\": {\"O\": 1}, \"90\": {\"O\": 1}, \"91\": {\"O\": 1}, \"92\": {\"O\": 1}, \"93\": {\"O\": 1}, \"94\": {\"O\": 1}, \"95\": {\"O\": 1}, \"96\": {\"O\": 1}, \"97\": {\"O\": 1}, \"98\": {\"O\": 1}, \"99\": {\"O\": 1}, \"100\": {\"O\": 1}, \"101\": {\"O\": 1}, \"102\": {\"O\": 1}, \"103\": {\"O\": 1}, \"104\": {\"O\": 1}, \"105\": {\"O\": 1}, \"106\": {\"O\": 1}, \"107\": {\"O\": 1}}" energy=-712.3377075195312 free_energy=-712.3377075195312 stress="-0.002547960029914975 -0.0014012858737260103 0.0005848438595421612 -0.0014012858737260103 -0.00021898442355450243 -0.00022455853468272835 0.0005848438595421612 -0.00022455853468272835 -0.001987176015973091" pbc="T T T"
Cd       2.68820319       3.75777911      10.18153968        0       0.05910703      -0.26623172       0.19733730
Cd       3.08347277       4.12148800       2.65908076        1      -0.05935521       0.26592940      -0.19736363
Cd       6.67890629       2.27207408       1.42210727        2       0.18147936      -0.08250767       0.00469599
Cd      -0.90722158       5.60714801      11.41853481        3      -0.18130353       0.08259189      -0.00490730
H        0.85917533       1.44838480       2.75799090        4       0.02081690       0.08560225      -0.05919340
H        4.91249305       6.43084285      10.08265693        5      -0.02045232      -0.08535311       0.05935059
H        0.39682733       0.19328099       1.80332319        6      -0.00285752      -0.00296012      -0.09236257
H        5.37484248       7.68594323      11.03731332        7       0.00264708       0.00361384       0.09276101
H        4.55635902       9.81558722       0.05528414        8       0.07816445       0.07896011       0.04764144
H        1.21531876      -1.93636120      12.78532602        9      -0.07789691      -0.07895377      -0.04789443
H        1.24281847       4.25853320       7.18349408       10       0.03368127       0.07891101      -0.04154404
H        4.52884081       3.62069003       5.65713847       11      -0.03374891      -0.07900426       0.04144920
H        6.08415359       1.99953891       8.38539922       12      -0.07442129      -0.03834711       0.02980080
H       -0.31248620       5.87967607       4.45523155       13       0.07449886       0.03834937      -0.02987146
H        2.49214802       1.36713939       8.22269734       14       0.00774154       0.00346711       0.03306298
H        3.27953149       6.51210280       4.61795942       15      -0.00774489      -0.00347240      -0.03309007
H       -0.23027147       1.10316753       4.64767966       16      -0.00367006      -0.00106423       0.04726635
H        6.00194235       6.77603929       8.19294538       17       0.00362735       0.00115632      -0.04714495
H        4.36548799       1.29476744       3.34476506       18       0.05195423       0.03601153       0.04887567
H        1.40621157       6.58446092       9.49584664       19      -0.05190799      -0.03572722      -0.04872638
H        1.33348420       7.81067135       2.08909054       20       0.00299297      -0.00427039       0.05573117
H        4.43820816       0.06859793      10.75153282       21      -0.00366529       0.00340120      -0.05557741
H        1.18461697      -0.76084970       7.80924756       22       0.01273283      -0.04651631      -0.05753150
H        4.58706195       8.64008735       5.03140071       23      -0.01269301       0.04644556       0.05730968
H       -0.51450940      -1.46092132       9.50225555       24       0.01526769       0.01000035      -0.02565491
H        6.28618115       9.34017933       3.33837144       25      -0.01545021      -0.01020712       0.02567679
H        0.40251777       2.11916102      11.71981116       26       0.06376714       0.08166113       0.07704575
H        5.36914486       5.76008776       1.12082597       27      -0.06366801      -0.08200741      -0.07745358
H        2.76251596      -0.57822475       3.66593424       28       0.00789382      -0.02030481       0.00037365
H        3.00918432       8.45747114       9.17470327       29      -0.00791912       0.02048061      -0.00024658
H        4.26030025      -0.37031665       6.41532318       30      -0.10603610      -0.01821362       0.06366019
H        1.51137546       8.24952436       6.42529852       31       0.10634158       0.01868943      -0.06343012
H        4.40693833       1.32325215       7.00813273       32      -0.00119071      -0.10290774      -0.06879172
H        1.36473241       6.55594807       5.83249512       33       0.00082320       0.10376407       0.06888240
H        5.13594350      -0.02406073       7.94446973       34       0.05015960      -0.02453510      -0.15214770
H        0.63571802       7.90325974       4.89614463       35      -0.05007251       0.02460188       0.15243864
H        4.56199874       2.06129052      11.64442128       36      -0.09681350      -0.02675009       0.08260630
H        1.20969028       5.81793797       1.19620411       37       0.09671634       0.02682868      -0.08283865
H        5.41859765       2.90580009      10.57131310       38      -0.05254114       0.04581109       0.05886289
H        0.35308502       4.97342441       2.26931679       39       0.05245762      -0.04581797      -0.05894853
C        1.99362596       5.11306425      12.73577130       40       0.17992291       0.29884693       0.23194177
C        3.77805832       2.76619656       0.10485871       41      -0.18041456      -0.30010867      -0.23261754
C        3.81446898       9.76463848       0.85213385       42       0.13827801       0.01157844      -0.21097624
C        1.95722918      -1.88540983      11.98847865       43      -0.13918999      -0.01139209       0.21200885
C        0.53762135       3.45385062       6.99994689       44       0.06367522      -0.05821270      -0.11028044
C        5.23403820       4.42536978       5.84067523       45      -0.06375992       0.05847304       0.11086655
C       -0.46436835       3.16642925       7.92575602       46      -0.07633738      -0.26626146      -0.18708390
C        6.23603160       4.71279779       4.91489138       47       0.07662167       0.26584440       0.18594322
C        2.94941656       8.67047119       0.95129431       48       0.00785185       0.14155249       0.04344934
C        2.82225274      -0.79124596      11.88934638       49      -0.00659971      -0.14077194      -0.04419503
C       -1.16480480      -0.07940657      11.82180327       50       0.22975340       0.14732215      -0.23704776
C        6.93648368       7.95865805       1.01882357       51      -0.22969256      -0.14756721       0.23697460
C        6.88586101       2.16100698       7.66834758       52       0.07121794       0.22839978       0.08325857
C       -1.11418917       5.71821336       5.17228319       53      -0.07136396      -0.22826570      -0.08283374
C       -0.54652630       3.95484704       9.18445218       54      -0.07096919       0.03593685       0.16206016
C        6.31819814       3.92437124       3.65616628       55       0.07147855      -0.03534653      -0.16129532
C        1.72365565       1.01822064       8.91206529       56       0.10637268       0.15433921       0.01608038
C        4.04801343       6.86102228       3.92857995       57      -0.10613747      -0.15463567      -0.01662853
C       -0.19469427       0.28338995      10.73563718       58       0.05068757       0.02469750       0.14302096
C        5.96637346       7.59585838       2.10497100       59      -0.05140103      -0.02449268      -0.14180347
C       -0.27227340       1.67019892       5.57723491       60       0.01791449      -0.04431294      -0.15307942
C        6.04393456       6.20901620       7.26338849       61      -0.01753321       0.04462667       0.15324295
C        1.61956872       3.12506762       4.77488974       62       0.00963533      -0.01838518      -0.09752360
C        4.15210244       4.75415791       8.06573654       63      -0.00992176       0.01813165       0.09761874
C        6.98864574       1.41732896       6.49064571       64       0.09106281       0.10175557       0.06904419
C       -1.21697253       6.46188801       6.34999124       65      -0.09082416      -0.10158180      -0.06934947
C        4.37953201       0.42749343       2.68921934       66       0.12339200       0.24107099       0.01310907
C        1.39216819       7.45174266      10.15139638       67      -0.12329717      -0.24050191      -0.01282617
C        2.00671117       8.65878819       1.98437174       68      -0.00221406       0.00075722       0.04698107
C        3.76498002      -0.77956063      10.85625271       69       0.00233634       0.00148042      -0.04558538
C        0.99827673      -0.14610651       8.68841075       70      -0.01493095      -0.00972718       0.11814672
C        4.77339418       8.02535424       4.15221923       71       0.01477338       0.00974271      -0.11778060
C        0.62899507       2.71100420       5.81765477       72      -0.12211791      -0.02535689       0.09289375
C        5.14266673       5.16822235       7.02297423       73       0.12199919       0.02495654      -0.09321386
C        0.03517029      -0.52769112       9.62106756       74      -0.00755795      -0.04888499      -0.16326720
C        5.73649004       8.40694586       3.21956485       75       0.00806968       0.04860620       0.16237788
C        0.55783823       1.45456231      10.87131247       76      -0.07809967       0.05684130       0.08398862
C        5.21384028       6.42467806       1.96931449       77       0.07765988      -0.05645546      -0.08321849
C        1.95697326       9.73773316       2.86216564       78      -0.11046380      -0.14124580      -0.10990438
C        3.81472704      -1.85845812       9.97847760       79       0.11016202       0.13891989       0.10862112
C        4.90935793       0.34602549       6.93160725       80      -0.11252707       0.00387040       0.08778840
C        0.86231002       7.53320900       5.90902928       81       0.11271113      -0.00537717      -0.08861442
N        1.50715770       1.80026784       9.98933084       82      -0.12231434      -0.17247115      -0.23477879
N        4.26450993       6.07896329       2.85130812       83       0.12285521       0.17318350       0.23476119
N        5.29402565       0.44127220       1.69632889       84      -0.27675122      -0.22608316       0.03372910
N        0.47766877       7.43796993      11.14428612       85       0.27699569       0.22531083      -0.03449933
O        6.09393251       0.43788780       6.13445971       86       0.03269871      -0.00824832       0.05017103
O       -0.32225215       7.44133859       6.70617175       87      -0.03328514       0.00803676      -0.04993589
O        0.08971287       0.98197880       2.33392633       88      -0.04778096      -0.10368092       0.04501514
O        5.68195983       6.89727138      10.50671625       89       0.04768632       0.10269484      -0.04564272
O        1.00444595       4.31419078      12.63937003       90      -0.19400874      -0.12649480      -0.16109419
O        4.76723411       3.56504650       0.20125324       91       0.19451849       0.12706405       0.16123143
O        0.44621318       4.69296179       9.52746060       92       0.26505685      -0.03606002      -0.08013928
O        5.32547111       3.18626486       3.31315713       93      -0.26551309       0.03580522       0.07998860
O       -1.60035402       3.91036210       9.90244249       94      -0.10338922      -0.00993960      -0.15135799
O        7.37204170       3.96885206       2.93819499       95       0.10326411       0.01000082       0.15141954
O        6.62589099      -1.24635414      11.87482327       96       0.09135817      -0.07317990       0.01934624
O       -0.85420404       9.12560274       0.96581275       97      -0.09137227       0.07312262      -0.01942983
O       -1.42355256       0.83650214      12.67232349       98      -0.12843910      -0.00993866       0.05311858
O        7.19523199       7.04273289       0.16831581       99       0.12848905       0.01023039      -0.05310368
O        2.99254765       5.11578936      11.94597280      100       0.03584820      -0.02078864       0.05422866
O        2.77912431       2.76345328       0.89462997      101      -0.03609835       0.02116561      -0.05361504
O        2.12446360       4.29110088       4.85085340      102      -0.03172600       0.00358559       0.10700405
O        3.64718746       3.58812780       7.98976807      103       0.03192408      -0.00332382      -0.10706148
O        1.91498707       2.32444661       3.81314803      104      -0.05352448      -0.01907843       0.17719471
O        3.85669028       5.55476863       9.02749274      105       0.05363503       0.01914555      -0.17726237
O        4.57521367       2.41163633      10.72311867      106      -0.00617856      -0.05757187      -0.28200749
O        1.19645765       5.46760184       2.11750401      107       0.00636587       0.05752185       0.28231689
108
Lattice="8.29262998 0.0 0.0 -1.5384750830404124 10.366989295031878 0.0 -0.982479296122758 -2.487757836220027 12.840633307777123" Properties=species:S:1:pos:R:3:spacegroup_kinds:I:1:forces:R:3 spacegroup="P 1" unit_cell=conventional occupancy="_JSON {\"0\": {\"Cd\": 1}, \"1\": {\"Cd\": 1}, \"2\": {\"Cd\": 1}, \"3\": {\"Cd\": 1}, \"4\": {\"H\": 1}, \"5\": {\"H\": 1}, \"6\": {\"H\": 1}, \"7\": {\"H\": 1}, \"8\": {\"H\": 1}, \"9\": {\"H\": 1}, \"10\": {\"H\": 1}, \"11\": {\"H\": 1}, \"12\": {\"H\": 1}, \"13\": {\"H\": 1}, \"14\": {\"H\": 1}, \"15\": {\"H\": 1}, \"16\": {\"H\": 1}, \"17\": {\"H\": 1}, \"18\": {\"H\": 1}, \"19\": {\"H\": 1}, \"20\": {\"H\": 1}, \"21\": {\"H\": 1}, \"22\": {\"H\": 1}, \"23\": {\"H\": 1}, \"24\": {\"H\": 1}, \"25\": {\"H\": 1}, \"26\": {\"H\": 1}, \"27\": {\"H\": 1}, \"28\": {\"H\": 1}, \"29\": {\"H\": 1}, \"30\": {\"H\": 1}, \"31\": {\"H\": 1}, \"32\": {\"H\": 1}, \"33\": {\"H\": 1}, \"34\": {\"H\": 1}, \"35\": {\"H\": 1}, \"36\": {\"H\": 1}, \"37\": {\"H\": 1}, \"38\": {\"H\": 1}, \"39\": {\"H\": 1}, \"40\": {\"C\": 1}, \"41\": {\"C\": 1}, \"42\": {\"C\": 1}, \"43\": {\"C\": 1}, \"44\": {\"C\": 1}, \"45\": {\"C\": 1}, \"46\": {\"C\": 1}, \"47\": {\"C\": 1}, \"48\": {\"C\": 1}, \"49\": {\"C\": 1}, \"50\": {\"C\": 1}, \"51\": {\"C\": 1}, \"52\": {\"C\": 1}, \"53\": {\"C\": 1}, \"54\": {\"C\": 1}, \"55\": {\"C\": 1}, \"56\": {\"C\": 1}, \"57\": {\"C\": 1}, \"58\": {\"C\": 1}, \"59\": {\"C\": 1}, \"60\": {\"C\": 1}, \"61\": {\"C\": 1}, \"62\": {\"C\": 1}, \"63\": {\"C\": 1}, \"64\": {\"C\": 1}, \"65\": {\"C\": 1}, \"66\": {\"C\": 1}, \"67\": {\"C\": 1}, \"68\": {\"C\": 1}, \"69\": {\"C\": 1}, \"70\": {\"C\": 1}, \"71\": {\"C\": 1}, \"72\": {\"C\": 1}, \"73\": {\"C\": 1}, \"74\": {\"C\": 1}, \"75\": {\"C\": 1}, \"76\": {\"C\": 1}, \"77\": {\"C\": 1}, \"78\": {\"C\": 1}, \"79\": {\"C\": 1}, \"80\": {\"C\": 1}, \"81\": {\"C\": 1}, \"82\": {\"N\": 1}, \"83\": {\"N\": 1}, \"84\": {\"N\": 1}, \"85\": {\"N\": 1}, \"86\": {\"O\": 1}, \"87\": {\"O\": 1}, \"88\": {\"O\": 1}, \"89\": {\"O\": 1}, \"90\": {\"O\": 1}, \"91\": {\"O\": 1}, \"92\": {\"O\": 1}, \"93\": {\"O\": 1}, \"94\": {\"O\": 1}, \"95\": {\"O\": 1}, \"96\": {\"O\": 1}, \"97\": {\"O\": 1}, \"98\": {\"O\": 1}, \"99\": {\"O\": 1}, \"100\": {\"O\": 1}, \"101\": {\"O\": 1}, \"102\": {\"O\": 1}, \"103\": {\"O\": 1}, \"104\": {\"O\": 1}, \"105\": {\"O\": 1}, \"106\": {\"O\": 1}, \"107\": {\"O\": 1}}" energy=-712.3365478515625 free_energy=-712.3365478515625 stress="-0.0025589345023036003 -0.0014113987563177943 0.0005809515132568777 -0.0014113987563177943 -0.000226379168452695 -0.00022063817596063018 0.0005809515132568777 -0.00022063817596063018 -0.0019864377100020647" pbc="T T T"
Cd       2.68818322       3.75786902      10.18147304        0       0.05933965      -0.26644230       0.19762616
Cd       3.08348872       4.12141654       2.65913379        1      -0.05959505       0.26605964      -0.19760524
Cd       6.67885480       2.27209749       1.42210594        2       0.18214214      -0.08208426       0.00496504
Cd      -0.90718016       5.60712915      11.41853593        3      -0.18197012       0.08213820      -0.00522926
H        0.85916911       1.44835920       2.75800860        4       0.02143467       0.08608728      -0.05887626
H        4.91249746       6.43086125      10.08264413        5      -0.02111431      -0.08585671       0.05900833
H        0.39682811       0.19328180       1.80334842        6      -0.00282983      -0.00289845      -0.09239384
H        5.37484168       7.68594214      11.03728542        7       0.00261372       0.00353158       0.09278874
H        4.55634065       9.81556866       0.05527294        8       0.07668083       0.07869806       0.04921941
H        1.21534192      -1.93633773      12.78534026        9      -0.07610101      -0.07867972      -0.04983748
H        1.24280839       4.25850959       7.18350651       10       0.03437600       0.07982554      -0.04138590
H        4.52884869       3.62070849       5.65712879       11      -0.03427641      -0.07977337       0.04125071
H        6.08416762       1.99954614       8.38539359       12      -0.07510366      -0.03878252       0.03017779
H       -0.31249672       5.87967066       4.45523577       13       0.07514626       0.03882162      -0.03017208
H        2.49214628       1.36713861       8.22268987       14       0.00696068       0.00303763       0.03366975
H        3.27953334       6.51210363       4.61796733       15      -0.00678493      -0.00291817      -0.03382848
H       -0.23027068       1.10316776       4.64766949       16      -0.00373183      -0.00037870       0.04844548
H        6.00194124       6.77603894       8.19295981       17       0.00368296       0.00050606      -0.04825668
H        4.36547147       1.29475598       3.34474951       18       0.05174043       0.03523660       0.04861394
H        1.40622317       6.58446890       9.49585753       19      -0.05161464      -0.03433807      -0.04808464
H        1.33348369       7.81067208       2.08908108       20       0.00286679      -0.00425684       0.05590227
H        4.43820864       0.06859749      10.75154008       21      -0.00354810       0.00336210      -0.05574692
H        1.18461501      -0.76084250       7.80925646       22       0.01290420      -0.04717365      -0.05856126
H        4.58706466       8.64007742       5.03138846       23      -0.01289546       0.04712837       0.05840322
H       -0.51451234      -1.46092324       9.50226048       24       0.01558057       0.01049183      -0.02542682
H        6.28618488       9.34018180       3.33836523       25      -0.01571795      -0.01058830       0.02551907
H        0.40249722       2.11913471      11.71978634       26       0.06360131       0.08185442       0.07761806
H        5.36916836       5.76011802       1.12085455       27      -0.06345131      -0.08234170      -0.07824013
H        2.76251282      -0.57821669       3.66593410       28       0.00798117      -0.02018871       0.00038911
H        3.00918731       8.45746339       9.17470336       29      -0.00801335       0.02036542      -0.00024408
H        4.26034292      -0.37030932       6.41529756       30      -0.10644738      -0.01844381       0.06359532
H        1.51132906       8.24951620       6.42532619       31       0.10674264       0.01894028      -0.06333946
H        4.40693882       1.32329448       7.00816102       32      -0.00057669      -0.10428761      -0.06913941
H        1.36473211       6.55591045       5.83247014       33       0.00018902       0.10511047       0.06922933
H        5.13592501      -0.02405169       7.94452582       34       0.05009469      -0.02416148      -0.15379027
H        0.63573312       7.90325232       4.89609866       35      -0.05002736       0.02426767       0.15394349
H        4.56203130       2.06129951      11.64439349       36      -0.09671233      -0.02754815       0.08539107
H        1.20965433       5.81792800       1.19623490       37       0.09659912       0.02774689      -0.08596160
H        5.41861647       2.90578368      10.57129202       38      -0.05283715       0.04563435       0.05908764
H        0.35306567       4.97344132       2.26933854       39       0.05278658      -0.04562549      -0.05919642
C        1.99357146       5.11297373      12.73570105       40       0.18521361       0.30500352       0.23498271
C        3.77811180       2.76628552       0.10492767       41      -0.18564139      -0.30610454      -0.23551370
C        3.81442680       9.76463495       0.85219820       42       0.14199057       0.01244533      -0.21463896
C        1.95728073      -1.88540561      11.98840012       43      -0.14365457      -0.01223863       0.21659037
C        0.53759782       3.45387214       6.99998764       44       0.06459077      -0.05899978      -0.11253302
C        5.23406203       4.42534792       5.84063379       45      -0.06464826       0.05937985       0.11324403
C       -0.46434170       3.16652221       7.92582134       46      -0.08009575      -0.27321774      -0.19188054
C        6.23601266       4.71273208       4.91484543       47       0.08001876       0.27162439       0.18963411
C        2.94941402       8.67042535       0.95128024       48       0.00705123       0.14237711       0.04462641
C        2.82225516      -0.79119438      11.88936257       49      -0.00555329      -0.14171845      -0.04577610
C       -1.16489292      -0.07946307      11.82189419       50       0.23480514       0.15117358      -0.24237397
C        6.93657223       7.95871494       1.01873222       51      -0.23474354      -0.15136652       0.24228343
C        6.88584145       2.16094423       7.66832471       52       0.07474620       0.23306561       0.08480175
C       -1.11416466       5.71829175       5.17231164       53      -0.07472543      -0.23302329      -0.08469275
C       -0.54650110       3.95483428       9.18439464       54      -0.07454050       0.03730088       0.16663051
C        6.31817273       3.92438381       3.65622362       55       0.07465636      -0.03650714      -0.16560395
C        1.72362821       1.01818083       8.91206115       56       0.10835907       0.15811679       0.01733854
C        4.04804749       6.86107190       3.92858529       57      -0.10860097      -0.15934819      -0.01827547
C       -0.19470760       0.28338345      10.73559955       58       0.04922673       0.02498096       0.14651838
C        5.96638609       7.59586440       2.10500584       59      -0.04998612      -0.02449331      -0.14482906
C       -0.27227756       1.67020920       5.57727042       60       0.01921465      -0.04485542      -0.15587634
C        6.04393789       6.20900772       7.26335938       61      -0.01872277       0.04510277       0.15574962
C        1.61956741       3.12507012       4.77490297       62       0.01046725      -0.01925976      -0.09964092
C        4.15210477       4.75415365       8.06571362       63      -0.01084726       0.01931920       0.10028426
C        6.98861858       1.41729861       6.49062511       64       0.09176835       0.10311641       0.07064167
C       -1.21694633       6.46191731       6.35001124       65      -0.09148920      -0.10251822      -0.07041776
C        4.37950538       0.42744140       2.68921651       66       0.12721220       0.24581242       0.01261513
C        1.39220467       7.45181381      10.15140018       67      -0.12783061      -0.24681094      -0.01272379
C        2.00671163       8.65878803       1.98436185       68      -0.00214925       0.00040409       0.04691298
C        3.76497949      -0.77956096      10.85626296       69       0.00231436       0.00212362      -0.04535951
C        0.99828118      -0.14610361       8.68837548       70      -0.01643443      -0.00954238       0.12089789
C        4.77339018       8.02535160       4.15225111       71       0.01629400       0.00977626      -0.12021554
C        0.62902208       2.71100981       5.81763423       72      -0.12399423      -0.02532758       0.09572601
C        5.14264356       5.16821761       7.02299193       73       0.12369949       0.02495737      -0.09583944
C        0.03517241      -0.52767745       9.62111322       74      -0.00728708      -0.05062927      -0.16618076
C        5.73648842       8.40693610       3.21953224       75       0.00807673       0.05001178       0.16443151
C        0.55785025       1.45455357      10.87129955       76      -0.07838576       0.05726178       0.08457556
C        5.21383042       6.42468523       1.96932506       77       0.07781036      -0.05682299      -0.08367710
C        1.95698703       9.73775076       2.86217934       78      -0.11147028      -0.14364672      -0.11082686
C        3.81471343      -1.85847530       9.97846417       79       0.11155152       0.14179592       0.10947071
C        4.90937887       0.34602477       6.93159092       80      -0.11339474       0.00485620       0.08987776
C        0.86228193       7.53321034       5.90905136       81       0.11379403      -0.00635573      -0.09073640
N        1.50719479       1.80032013       9.98940202       82      -0.12263672      -0.17586751      -0.23820844
N        4.26446725       6.07890312       2.85122655       83       0.12336173       0.17725718       0.23874253
N        5.29412355       0.44135218       1.69631696       84      -0.28140500      -0.22996101       0.03576080
N        0.47756643       7.43788668      11.14429887       85       0.28208679       0.22942370      -0.03687173
O        6.09392378       0.43789000       6.13444631       86       0.03261982      -0.00895994       0.04958311
O       -0.32224494       7.44133684       6.70618257       87      -0.03333421       0.00877372      -0.04914168
O        0.08972017       0.98199462       2.33391946       88      -0.04839746      -0.10414369       0.04466664
O        5.68194968       6.89724951      10.50672597       89       0.04833848       0.10321532      -0.04526020
O        1.00448474       4.31421607      12.63940224       90      -0.19915816      -0.13110852      -0.16246474
O        4.76719628       3.56502179       0.20122188       91       0.19961274       0.13163263       0.16257513
O        0.44613944       4.69297182       9.52748289       92       0.26774812      -0.03488727      -0.08028066
O        5.32552662       3.18625737       3.31314040       93      -0.26762900       0.03499168       0.08034509
O       -1.60033808       3.91036363       9.90246583       94      -0.10268109      -0.01062380      -0.15273380
O        7.37201646       3.96884962       2.93815798       95       0.10244992       0.01067747       0.15296447
O        6.62587461      -1.24634102      11.87481981       96       0.08921111      -0.07690495       0.02035967
O       -0.85419197       9.12559308       0.96581531       97      -0.08924182       0.07675177      -0.02044588
O       -1.42354057       0.83650307      12.67231853       98      -0.12955661      -0.00924388       0.05510615
O        7.19522182       7.04273208       0.16832002       99       0.12960967       0.00955519      -0.05505250
O        2.99254325       5.11579191      11.94596614      100       0.03592561      -0.02152510       0.05322704
O        2.77913087       2.76344944       0.89463972      101      -0.03620254       0.02187813      -0.05264276
O        2.12447163       4.29109997       4.85082631      102      -0.03186912       0.00368412       0.10754898
O        3.64718171       3.58812840       7.98978734      103       0.03203325      -0.00340639      -0.10764036
O        1.91500026       2.32445132       3.81310436      104      -0.05408083      -0.01822725       0.17892002
O        3.85667518       5.55476324       9.02754262      105       0.05428994       0.01791382      -0.17946967
O        4.57521493       2.41164813      10.72317648      106      -0.00583799      -0.05625416      -0.28528157