64
Lattice="10.94654271 0.0 0.0 1.0067205476343142 11.791523053414435 0.0 0.0027830953034715363 0.7300415122733984 13.124287373633564" Properties=species:S:1:pos:R:3:spacegroup_kinds:I:1:forces:R:3 spacegroup="P 1" unit_cell=conventional occupancy="_JSON {\"0\": {\"Zn\": 1}, \"1\": {\"Zn\": 1}, \"2\": {\"H\": 1}, \"3\": {\"H\": 1}, \"4\": {\"H\": 1}, \"5\": {\"H\": 1}, \"6\": {\"H\": 1}, \"7\": {\"H\": 1}, \"8\": {\"H\": 1}, \"9\": {\"H\": 1}, \"10\": {\"H\": 1}, \"11\": {\"H\": 1}, \"12\": {\"H\": 1}, \"13\": {\"H\": 1}, \"14\": {\"H\": 1}, \"15\": {\"H\": 1}, \"16\": {\"H\": 1}, \"17\": {\"H\": 1}, \"18\": {\"H\": 1}, \"19\": {\"C\": 1}, \"20\": {\"C\": 1}, \"21\": {\"C\": 1}, \"22\": {\"C\": 1}, \"23\": {\"C\": 1}, \"24\": {\"C\": 1}, \"25\": {\"C\": 1}, \"26\": {\"C\": 1}, \"27\": {\"C\": 1}, \"28\": {\"C\": 1}, \"29\": {\"C\": 1}, \"30\": {\"C\": 1}, \"31\": {\"C\": 1}, \"32\": {\"C\": 1}, \"33\": {\"C\": 1}, \"34\": {\"C\": 1}, \"35\": {\"C\": 1}, \"36\": {\"C\": 1}, \"37\": {\"C\": 1}, \"38\": {\"C\": 1}, \"39\": {\"C\": 1}, \"40\": {\"C\": 1}, \"41\": {\"C\": 1}, \"42\": {\"C\": 1}, \"43\": {\"C\": 1}, \"44\": {\"C\": 1}, \"45\": {\"C\": 1}, \"46\": {\"C\": 1}, \"47\": {\"C\": 1}, \"48\": {\"C\": 1}, \"49\": {\"C\": 1}, \"50\": {\"C\": 1}, \"51\": {\"N\": 1}, \"52\": {\"N\": 1}, \"53\": {\"N\": 1}, \"54\": {\"O\": 1}, \"55\": {\"O\": 1}, \"56\": {\"O\": 1}, \"57\": {\"O\": 1}, \"58\": {\"O\": 1}, \"59\": {\"O\": 1}, \"60\": {\"O\": 1}, \"61\": {\"O\": 1}, \"62\": {\"O\": 1}, \"63\": {\"O\": 1}}" energy=-449.8941345214844 free_energy=-449.8941345214844 stress="0.0006077141151763499 0.0001495448814239353 0.00010121645027538761 0.0001495448814239353 -0.0017529232427477837 -0.0001727947819745168 0.00010121645027538761 -0.0001727947819745168 0.00027615041472017765" pbc="T T T"
Zn       5.97365215       7.65151641       6.60599201        0       0.01608593      -0.12150283      -0.10869514
Zn       6.03524624       4.84452154       6.53237307        1      -0.01397070       0.05581690      -0.01461219
H        1.90879900       4.96119930       5.09253689        2       0.00715540      -0.00139356      -0.03106726
H        2.85297996       7.23952329       9.19108748        3      -0.02772824       0.01635330      -0.05737001
H        1.47934588       8.25724226      10.97264804        4       0.01470913       0.01662237      -0.01548589
H        9.94166030       8.38617487      10.73048774        5       0.00615651      -0.01176239      -0.01741257
H        8.84224506       7.49243158       8.71889980        6      -0.06099647      -0.03017978      -0.08175935
H       10.36243104       5.01993213       4.87489210        7       0.02969026       0.04037146       0.04546385
H        6.34800475       4.40739574       2.32657585        8       0.02005563      -0.15637320       0.05329846
H        6.89508708       3.29575670       0.15050003        9      -0.00547064       0.01484683      -0.02102783
H        4.96527139       9.25800533      13.01681806       10      -0.02117804       0.10266459      -0.01459218
H        6.99642077       4.12639589      10.77830155       11       0.01131926      -0.05008564      -0.02967470
H        5.55136442       8.16305016      10.82767860       12      -0.00671825       0.00668328       0.00084953
H        7.72869735       9.80993731       5.60952647       13       0.00698858      -0.04546449      -0.00780375
H        4.15053366       9.70453455       7.69398315       14       0.02671830       0.00804932      -0.02941231
H        8.87182026      12.07337424       5.06960166       15       0.03058095      -0.02936402      -0.01422461
H        4.08109733      12.21182914       7.93204107       16      -0.00737488       0.02418340       0.00290786
H        7.82354961       2.78374968       5.36860678       17      -0.01262593       0.05448291       0.01372335
H        4.23472938       2.68329456       7.42303149       18       0.08464932      -0.00106925      -0.05193887
C        6.27695079       6.20360470       9.16858590       19       0.09719633      -0.30043492       0.57548630
C        3.42705280       6.14610279       6.90574603       20      -0.09991032       0.22810768      -0.13234475
C        5.65251680       6.34449752       3.99476574       21      -0.06017370      -0.19447486      -0.34287676
C        8.59632491       6.25123386       6.41211042       22      -0.24659958      -0.14868063       0.03402875
C        1.76881835       7.30150908       9.07790693       23       0.10102104      -0.10534721      -0.16541085
C        1.00064421       7.87181575      10.07189247       24      -0.19195315       0.08978689       0.16243994
C       10.54590373       7.93928347       9.93981292       25       0.06054597      -0.02162728       0.02697697
C        9.92227170       7.42600893       8.81476291       26       0.18253066       0.01667438      -0.01425211
C       10.67862506       6.81606105       7.77818210       27       0.02653084       0.02922952       0.04585929
C        1.16448164       6.75583061       7.91392633       28      -0.16004144       0.08185904       0.01390307
C        1.92766063       6.10828549       6.89807891       29       0.01760231       0.00938582       0.06816929
C        1.30233528       5.47028856       5.84188923       30      -0.21198538       0.00062484      -0.06077804
C       10.85067594       5.51369760       5.71865939       31       0.19650064      -0.17088865      -0.16830477
C       10.07153952       6.19832919       6.63506296       32       0.11507607       0.00407497       0.05234573
C        5.56651788       6.37224076       2.49594779       33      -0.07156593       0.42181057      -0.16268203
C        6.27185773       6.15505387      10.67340481       34      -0.05768500      -0.05125098      -0.24857438
C        6.59902919       4.92972531      12.73954808       35      -0.01247973      -0.03220637      -0.12295197
C        6.65572021       4.97817447      11.36202708       36       0.03535444       0.05864921      -0.00353563
C        5.83569697       7.26510251      11.37589451       37       0.07003956      -0.07096544       0.11549696
C        5.74887953       7.23256435      12.78437389       38      -0.14864981       0.34859255       0.02305178
C        6.13022793       5.31284834       0.35937159       39      -0.00765505      -0.08973140       0.36183617
C        6.02983436       5.28792200       1.77573430       40       0.09561433       0.02419260      -0.27921128
C        5.17412444       7.53612435       1.77077569       41      -0.03670380      -0.15486217       0.33214051
C        5.27019917       7.61837916       0.40313534       42       0.11552649      -0.28693756      -0.05578673
C        7.05217811       0.77189054       5.60232931       43      -0.26361543       0.05751292       0.15830171
C        7.03246020       2.14059793       5.75307276       44       0.01720573       0.04590043       0.02006105
C        5.02095586       2.10066418       6.93005406       45      -0.33394754      -0.17455900       0.16506073
C        4.94758161       0.68814460       6.84664759       46      -0.15611669       0.17685659       0.14878072
C        7.00189102      11.80236682       6.16431886       47       0.26242834      -0.16916855      -0.17768513
C        6.94403439      10.38917920       6.09996428       48      -0.11133754       0.05323330       0.10000074
C        4.93077945      10.35227436       7.29027371       49       0.09807613      -0.31999159      -0.01577493
C        4.90194110      11.71956521       7.41193912       50       0.10276729       0.11607140      -0.13017122
N        5.95175564       9.70241583       6.65387512       51      -0.14592394       0.03908157       0.00868889
N        6.02341371       2.78374939       6.41116001       52       0.38380203       0.20782793      -0.21104105
N        4.53725232       8.67062998       2.46759357       53      -0.18647560       0.09664237      -0.08768681
O        6.05985938       7.33659830       8.64084110       54      -0.07813856       0.39633271      -0.32478046
O        6.48422424       5.11262999       8.54810531       55      -0.00544348      -0.11308023      -0.19888720
O        3.95730706       7.29464854       6.75438134       56      -0.09588417      -0.02970600       0.11989772
O        4.03981645       5.03886678       7.00116328       57       0.03215615      -0.15760714       0.03287770
O        5.90875552       7.44732624       4.56105958       58       0.16027170       0.30696708       0.31250817
O        5.52281502       5.21129179       4.55135754       59      -0.01896309      -0.22936070       0.19756141
O        8.01968000       7.37755881       6.55631015       60       0.07135409       0.03970823       0.10765078
O        8.01230553       5.15616812       6.09388892       61       0.20358539       0.12772912       0.03190422
O        4.97252288       9.80574543       2.23111410       62       0.06525877      -0.01461196       0.03238866
O        3.56755491       8.40642065       3.18940747       63       0.09275824      -0.03423953       0.03415209
64
Lattice="10.94654271 0.0 0.0 1.0067205476343142 11.791523053414435 0.0 0.0027830953034715363 0.7300415122733984 13.124287373633564" Properties=species:S:1:pos:R:3:spacegroup_kinds:I:1:forces:R:3 spacegroup="P 1" unit_cell=conventional occupancy="_JSON {\"0\": {\"Zn\": 1}, \"1\": {\"Zn\": 1}, \"2\": {\"H\": 1}, \"3\": {\"H\": 1}, \"4\": {\"H\": 1}, \"5\": {\"H\": 1}, \"6\": {\"H\": 1}, \"7\": {\"H\": 1}, \"8\": {\"H\": 1}, \"9\": {\"H\": 1}, \"10\": {\"H\": 1}, \"11\": {\"H\": 1}, \"12\": {\"H\": 1}, \"13\": {\"H\": 1}, \"14\": {\"H\": 1}, \"15\": {\"H\": 1}, \"16\": {\"H\": 1}, \"17\": {\"H\": 1}, \"18\": {\"H\": 1}, \"19\": {\"C\": 1}, \"20\": {\"C\": 1}, \"21\": {\"C\": 1}, \"22\": {\"C\": 1}, \"23\": {\"C\": 1}, \"24\": {\"C\": 1}, \"25\": {\"C\": 1}, \"26\": {\"C\": 1}, \"27\": {\"C\": 1}, \"28\": {\"C\": 1}, \"29\": {\"C\": 1}, \"30\": {\"C\": 1}, \"31\": {\"C\": 1}, \"32\": {\"C\": 1}, \"33\": {\"C\": 1}, \"34\": {\"C\": 1}, \"35\": {\"C\": 1}, \"36\": {\"C\": 1}, \"37\": {\"C\": 1}, \"38\": {\"C\": 1}, \"39\": {\"C\": 1}, \"40\": {\"C\": 1}, \"41\": {\"C\": 1}, \"42\": {\"C\": 1}, \"43\": {\"C\": 1}, \"44\": {\"C\": 1}, \"45\": {\"C\": 1}, \"46\": {\"C\": 1}, \"47\": {\"C\": 1}, \"48\": {\"C\": 1}, \"49\": {\"C\": 1}, \"50\": {\"C\": 1}, \"51\": {\"N\": 1}, \"52\": {\"N\": 1}, \"53\": {\"N\": 1}, \"54\": {\"O\": 1}, \"55\": {\"O\": 1}, \"56\": {\"O\": 1}, \"57\": {\"O\": 1}, \"58\": {\"O\": 1}, \"59\": {\"O\": 1}, \"60\": {\"O\": 1}, \"61\": {\"O\": 1}, \"62\": {\"O\": 1}, \"63\": {\"O\": 1}}" energy=-449.88323974609375 free_energy=-449.88323974609375 stress="0.0005620144074782729 0.00011794862075475976 0.00017781651695258915 0.00011794862075475976 -0.0015346197178587317 -2.2846603314974345e-05 0.00017781651695258915 -2.2846603314974345e-05 0.0002873955527320504" pbc="T T T"
Zn       5.97654993       7.65202561       6.60734151        0       0.00381489      -0.10960539      -0.10227673
Zn       6.03283020       4.84656478       6.52970191        1      -0.01153056       0.04837938       0.00236949
H        1.90797989       4.95985501       5.08971644        2      -0.04085480       0.04547270       0.05679522
H        2.85055160       7.23754929       9.19275230        3      -0.02530833       0.01966878      -0.06810394
H        1.48122446       8.25955778      10.97093610        4      -0.00044266      -0.01032036      -0.03347439
H        9.94125163       8.38728704      10.72872096        5      -0.04555420       0.03136060       0.06443772
H        8.84454266       7.49046677       8.71943905        6      -0.18506888      -0.00850657      -0.09654640
H       10.36352041       5.01869938       4.87478722        7      -0.02433652      -0.01142977      -0.04262286
H        6.34910819       4.40604190       2.32567176        8       0.00176938      -0.14075276       0.03629753
H        6.89419313       3.29467572       0.14829469        9       0.02108219      -0.06123112       0.02453481
H        4.96755037       9.25945855      13.01934452       10      -0.01473384       0.07337479      -0.01897579
H        6.99643462       4.12726047      10.77569613       11      -0.02429348       0.02695349       0.01468073
H        5.55050177       8.16387966      10.82769703       12       0.01083716      -0.04224601       0.03603885
H        7.73119864       9.81086387       5.60970336       13       0.06829637      -0.11048861      -0.05239269
H        4.14926874       9.70370261       7.69327852       14       0.02653517      -0.00247144      -0.03409183
H        8.86905829      12.07426252       5.06823397       15       0.11754714      -0.09035029      -0.06364056
H        4.08144367      12.20945364       7.93105446       16       0.03545965       0.01841864      -0.02721545
H        7.82204410       2.78420492       5.36637899       17      -0.01411204       0.03854302       0.02202564
H        4.23464994       2.68452584       7.42361135       18       0.15591046      -0.06178646      -0.09772732
C        6.27715047       6.20191459       9.16884893       19       0.08387421      -0.20261939       0.56059700
C        3.42800638       6.14905232       6.90839528       20      -0.19876200      -0.07733821      -0.13922542
C        5.65111757       6.34223674       3.99349329       21      -0.03580571      -0.14461270      -0.29612255
C        8.59823774       6.25330148       6.41151226       22      -0.44499680      -0.31094608      -0.01123692
C        1.76685688       7.30170905       9.07627213       23       0.13179864      -0.11240067      -0.08110908
C        0.99940285       7.86935829      10.07269723       24      -0.17437132       0.16721386       0.19310188
C       10.54578580       7.94202838       9.94195531       25       0.04143040      -0.15863648      -0.22510882
C        9.92141087       7.42801373       8.81182669       26       0.34633085       0.06277545       0.14559332
C       10.67642778       6.81793153       7.77541580       27       0.10709827       0.01464801       0.11227535
C        1.16405902       6.75505094       7.91537627       28      -0.23374434       0.07429097      -0.09317322
C        1.92766570       6.10782509       6.89950786       29      -0.01655492      -0.00273625       0.05147073
C        1.30056631       5.46784885       5.84395588       30      -0.12949492      -0.02609439      -0.15186709
C       10.84908134       5.51092823       5.71621734       31       0.24283671      -0.06580713       0.03738089
C       10.06974528       6.19738530       6.63477362       32       0.19657969      -0.02872475      -0.03632084
C        5.56584931       6.37103940       2.49337126       33      -0.08661152       0.42978251      -0.10696512
C        6.27014666       6.15669227      10.67360522       34      -0.02613764      -0.14184341      -0.28973946
C        6.59950182       4.92685956      12.73984127       35      -0.08309889       0.14478607      -0.22850738
C        6.65336573       4.98045971      11.36151559       36       0.11015870      -0.10830503       0.00325426
C        5.83599799       7.26415607      11.37632383       37       0.01718848       0.08947305       0.10966127
C        5.75055766       7.23183058      12.78468983       38      -0.18220240       0.37334692       0.00464503
C        6.12912973       5.31239362       0.35796751       39       0.03413894      -0.19108352       0.37576297
C        6.02740094       5.28540380       1.77354969       40       0.11082470       0.05736820      -0.22166334
C        5.17361737       7.53638322       1.76828188       41      -0.04983652      -0.19443546       0.50576192
C        5.27048977       7.61736552       0.40431580       42       0.12552258      -0.23325099      -0.21270353
C        7.05392068       0.77141467       5.60166731       43      -0.45108303       0.10434268       0.26455796
C        7.03336484       2.13864588       5.75305484       44       0.01082362       0.17508322      -0.00248595
C        5.02366036       2.10020735       6.92932776       45      -0.50823653      -0.13306892       0.25363541
C        4.94765311       0.68524156       6.84792448       46      -0.07309520       0.38074210       0.10364763
C        6.99930902      11.80496023       6.16510861       47       0.47063798      -0.43862393      -0.31542778
C        6.94628074      10.38633732       6.09704091       48      -0.23504329       0.37503853       0.22865918
C        4.92920148      10.35082592       7.28890129       49       0.19196969      -0.23616180      -0.03080955
C        4.90429042      11.71859932       7.40929702       50      -0.10790187       0.05511867      -0.00570922
N        5.95445316       9.70525680       6.65582009       51      -0.17955345      -0.15010846      -0.03273635
N        6.02151768       2.78578758       6.40868970       52       0.47224841       0.09341073      -0.23155627
N        4.53610667       8.67309452       2.46659789       53      -0.24775347      -0.15100819      -0.05402774
O        6.06217053       7.33809019       8.64229291       54      -0.06777401       0.30144042      -0.32650539
O        6.48455374       5.11087810       8.54940110       55      -0.01855318      -0.08247823      -0.20865652
O        3.95654473       7.29324552       6.75649048       56       0.01367708       0.14961366       0.10576745
O        4.03784175       5.03712100       7.00288784       57       0.02488293      -0.04939725       0.03010874
O        5.90915617       7.44464930       4.56340526       58       0.13375692       0.24715140       0.24577504
O        5.52119227       5.20899099       4.55060012       59      -0.02699355      -0.20746866       0.15561236
O        8.02060435       7.37928450       6.55580763       60       0.10307671       0.01690730       0.10021675
O        8.00991088       5.15513425       6.09339168       61       0.30832055       0.31047696       0.07673633
O        4.97335290       9.80392219       2.23005489       62       0.08121654       0.14275992       0.03463760
O        3.56546414       8.40490094       3.18854295       63       0.16419578       0.02839714      -0.01731348
64
Lattice="10.94654271 0.0 0.0 1.0067205476343142 11.791523053414435 0.0 0.0027830953034715363 0.7300415122733984 13.124287373633564" Properties=species:S:1:pos:R:3:spacegroup_kinds:I:1:forces:R:3 spacegroup="P 1" unit_cell=conventional occupancy="_JSON {\"0\": {\"Zn\": 1}, \"1\": {\"Zn\": 1}, \"2\": {\"H\": 1}, \"3\": {\"H\": 1}, \"4\": {\"H\": 1}, \"5\": {\"H\": 1}, \"6\": {\"H\": 1}, \"7\": {\"H\": 1}, \"8\": {\"H\": 1}, \"9\": {\"H\": 1}, \"10\": {\"H\": 1}, \"11\": {\"H\": 1}, \"12\": {\"H\": 1}, \"13\": {\"H\": 1}, \"14\": {\"H\": 1}, \"15\": {\"H\": 1}, \"16\": {\"H\": 1}, \"17\": {\"H\": 1}, \"18\": {\"H\": 1}, \"19\": {\"C\": 1}, \"20\": {\"C\": 1}, \"21\": {\"C\": 1}, \"22\": {\"C\": 1}, \"23\": {\"C\": 1}, \"24\": {\"C\": 1}, \"25\": {\"C\": 1}, \"26\": {\"C\": 1}, \"27\": {\"C\": 1}, \"28\": {\"C\": 1}, \"29\": {\"C\": 1}, \"30\": {\"C\": 1}, \"31\": {\"C\": 1}, \"32\": {\"C\": 1}, \"33\": {\"C\": 1}, \"34\": {\"C\": 1}, \"35\": {\"C\": 1}, \"36\": {\"C\": 1}, \"37\": {\"C\": 1}, \"38\": {\"C\": 1}, \"39\": {\"C\": 1}, \"40\": {\"C\": 1}, \"41\": {\"C\": 1}, \"42\": {\"C\": 1}, \"43\": {\"C\": 1}, \"44\": {\"C\": 1}, \"45\": {\"C\": 1}, \"46\": {\"C\": 1}, \"47\": {\"C\": 1}, \"48\": {\"C\": 1}, \"49\": {\"C\": 1}, \"50\": {\"C\": 1}, \"51\": {\"N\": 1}, \"52\": {\"N\": 1}, \"53\": {\"N\": 1}, \"54\": {\"O\": 1}, \"55\": {\"O\": 1}, \"56\": {\"O\": 1}, \"57\": {\"O\": 1}, \"58\": {\"O\": 1}, \"59\": {\"O\": 1}, \"60\": {\"O\": 1}, \"61\": {\"O\": 1}, \"62\": {\"O\": 1}, \"63\": {\"O\": 1}}" energy=-449.8689270019531 free_energy=-449.8689270019531 stress="0.0007134624756872654 -1.7747064703144133e-05 -1.1904702660103794e-05 -1.7747064703144133e-05 -0.0018063982715830207 3.7768982110719662e-06 -1.1904702660103794e-05 3.7768982110719662e-06 0.00042157957796007395" pbc="T T T"
Zn       5.97678014       7.65189054       6.60817008        0       0.02678230      -0.09753653      -0.11964969
Zn       6.03330931       4.84799545       6.53103928        1      -0.03144977       0.02934055      -0.02402548
H        1.90988705       4.95718488       5.08793702        2      -0.08164503       0.10062276       0.13723086
H        2.85225406       7.23574972       9.19522615        3      -0.17583318       0.02753792      -0.10210897
H        1.48037245       8.25751168      10.97377935        4       0.02548851       0.00612114      -0.02387208
H        9.94110422       8.38439148      10.72989138        5      -0.09804884       0.06825063       0.12074850
H        8.84207442       7.48926111       8.72177128        6      -0.10645273      -0.00616989      -0.10540529
H       10.36365527       5.01720858       4.87241316        7       0.03300475       0.02498659       0.03234039
H        6.35143333       4.40387289       2.32578707        8      -0.01744017      -0.10438648       0.01360053
H        6.89502841       3.29588902       0.14599582        9       0.04432132      -0.15019405       0.05132262
H        4.97002442       9.25876099      13.01959840       10      -0.02983612       0.13084362      -0.05932733
H        6.99606243       4.12778210      10.77858329       11      -0.01616497       0.02296685      -0.03644853
H        5.54832853       8.16479140      10.82630085       12       0.02077516      -0.01919755       0.03146568
H        7.72996771       9.81168354       5.60959734       13       0.10624676      -0.12745339      -0.06694541
H        4.14900676       9.70414521       7.69464758       14       0.04029284       0.00920348      -0.05161140
H        8.86810794      12.07707371       5.06541492       15       0.12569615      -0.10337158      -0.05954143
H        4.08411133      12.20759914       7.93344895       16      -0.04606666       0.08356415       0.02059869
H        7.81925946       2.78228954       5.36586776       17       0.10586828       0.14368452      -0.02747675
H        4.23247170       2.68566891       7.42412312       18       0.23091802      -0.10408381      -0.13058716
C        6.27767104       6.20156141       9.16660437       19       0.08567902      -0.14208087       0.70400834
C        3.42894904       6.14862762       6.90569728       20      -0.28102893      -0.15026614      -0.06650215
C        5.65117114       6.34505666       3.99553998       21      -0.09553432      -0.45015410      -0.44752809
C        8.60023006       6.25143635       6.41126685       22      -0.58942866      -0.27594995      -0.04745183
C        1.76405480       7.30239841       9.07573504       23       0.36458665      -0.11489731      -0.00563860
C        1.00094857       7.87200773      10.07333819       24      -0.35255069       0.13917062       0.17381449
C       10.54396714       7.94264755       9.94347235       25       0.20185688      -0.19415520      -0.32040572
C        9.92169692       7.43039880       8.81075521       26       0.27024209       0.03145350       0.18737000
C       10.67653496       6.81544075       7.77545191       27       0.02542268       0.09583876       0.16568497
C        1.16214768       6.75348818       7.91773387       28      -0.19390729       0.01722504      -0.23077893
C        1.92526682       6.10532618       6.89838390       29       0.17389469       0.14383370       0.25483438
C        1.30317072       5.46746983       5.84587203       30      -0.21251382      -0.17516780      -0.38350785
C       10.85195216       5.50850767       5.71668337       31       0.04885799      -0.02124885       0.04896839
C       10.06753952       6.19769210       6.63510488       32       0.42336044      -0.17700623      -0.13259174
C        5.56673296       6.37371991       2.49586981       33      -0.01097578       0.19372773      -0.24204183
C        6.26962804       6.15931981      10.67350580       34       0.00034617      -0.15927297      -0.39898449
C        6.59936225       4.92388801      12.73700130       35      -0.14395882       0.35645998      -0.20339558
C        6.65341786       4.98316933      11.35967907       36       0.11672424      -0.18837336       0.08434168
C        5.83891496       7.26686777      11.37379560       37      -0.03019982       0.05528012       0.31291652
C        5.75174846       7.23100601      12.78748833       38      -0.18047775       0.44241410      -0.24872665
C        6.12835926       5.31157977       0.35840847       39       0.08250225      -0.28885639       0.34277689
C        6.02820900       5.28345580       1.77237733       40       0.06734364       0.16704442      -0.06557080
C        5.17573814       7.53465738       1.77010171       41      -0.05828810      -0.07192239       0.34020329
C        5.27268798       7.61781007       0.40165447       42       0.12988620      -0.32224292       0.05176055
C        7.05451859       0.77228365       5.60251185       43      -0.45722422       0.11463140       0.25872305
C        7.03541183       2.14037810       5.75431240       44      -0.15374473       0.02367330       0.03169893
C        5.02611572       2.10030974       6.93198058       45      -0.60574472      -0.04722540       0.27086294
C        4.95020146       0.68766322       6.85066827       46      -0.10587976       0.25342503       0.08570494
C        6.99915300      11.80525952       6.16448255       47       0.49271697      -0.37505543      -0.27276343
C        6.94663631      10.38598461       6.09844909       48      -0.16932067       0.47445026       0.14625013
C        4.92767075      10.35278388       7.28885544       49       0.29819092      -0.26007694      -0.08824903
C        4.90393930      11.72078498       7.41020013       50       0.00443539      -0.04040806      -0.05213127
N        5.95677976       9.70653099       6.65305736       51      -0.41179562      -0.19204211       0.12084292
N        6.02077465       2.78575416       6.40662466       52       0.52818888       0.15930098      -0.19955921
N        4.53912193       8.67186201       2.46790927       53      -0.27431628      -0.02508235      -0.07177335
O        6.06414765       7.33571745       8.63968289       54      -0.09768921       0.42859766      -0.35778019
O        6.48622813       5.11354129       8.54872490       55       0.00402471      -0.24979368      -0.26942253
O        3.95789153       7.29233554       6.75848710       56       0.01673793       0.15936425       0.08045142
O        4.03611367       5.03456049       7.00267452       57       0.03281756       0.00449160       0.01158276
O        5.90768933       7.44294346       4.56130833       58       0.20424114       0.52838713       0.44551432
O        5.52031468       5.20946157       4.55077553       59      -0.02423147      -0.17091508       0.16245165
O        8.02295151       7.37841263       6.55422381       60       0.09460497       0.02294657       0.10583417
O        8.00708895       5.15582315       6.09051766       61       0.37329790       0.31242824       0.09227373
O        4.97225768       9.80647347       2.22834964       62       0.04361057      -0.01205021       0.06235763
O        3.56816104       8.40284630       3.19048965       63       0.20878369       0.04536980      -0.03673285
64
Lattice="10.94654271 0.0 0.0 1.0067205476343142 11.791523053414435 0.0 0.0027830953034715363 0.7300415122733984 13.124287373633564" Properties=species:S:1:pos:R:3:spacegroup_kinds:I:1:forces:R:3 spacegroup="P 1" unit_cell=conventional occupancy="_JSON {\"0\": {\"Zn\": 1}, \"1\": {\"Zn\": 1}, \"2\": {\"H\": 1}, \"3\": {\"H\": 1}, \"4\": {\"H\": 1}, \"5\": {\"H\": 1}, \"6\": {\"H\": 1}, \"7\": {\"H\": 1}, \"8\": {\"H\": 1}, \"9\": {\"H\": 1}, \"10\": {\"H\": 1}, \"11\": {\"H\": 1}, \"12\": {\"H\": 1}, \"13\": {\"H\": 1}, \"14\": {\"H\": 1}, \"15\": {\"H\": 1}, \"16\": {\"H\": 1}, \"17\": {\"H\": 1}, \"18\": {\"H\": 1}, \"19\": {\"C\": 1}, \"20\": {\"C\": 1}, \"21\": {\"C\": 1}, \"22\": {\"C\": 1}, \"23\": {\"C\": 1}, \"24\": {\"C\": 1}, \"25\": {\"C\": 1}, \"26\": {\"C\": 1}, \"27\": {\"C\": 1}, \"28\": {\"C\": 1}, \"29\": {\"C\": 1}, \"30\": {\"C\": 1}, \"31\": {\"C\": 1}, \"32\": {\"C\": 1}, \"33\": {\"C\": 1}, \"34\": {\"C\": 1}, \"35\": {\"C\": 1}, \"36\": {\"C\": 1}, \"37\": {\"C\": 1}, \"38\": {\"C\": 1}, \"39\": {\"C\": 1}, \"40\": {\"C\": 1}, \"41\": {\"C\": 1}, \"42\": {\"C\": 1}, \"43\": {\"C\": 1}, \"44\": {\"C\": 1}, \"45\": {\"C\": 1}, \"46\": {\"C\": 1}, \"47\": {\"C\": 1}, \"48\": {\"C\": 1}, \"49\": {\"C\": 1}, \"50\": {\"C\": 1}, \"51\": {\"N\": 1}, \"52\": {\"N\": 1}, \"53\": {\"N\": 1}, \"54\": {\"O\": 1}, \"55\": {\"O\": 1}, \"56\": {\"O\": 1}, \"57\": {\"O\": 1}, \"58\": {\"O\": 1}, \"59\": {\"O\": 1}, \"60\": {\"O\": 1}, \"61\": {\"O\": 1}, \"62\": {\"O\": 1}, \"63\": {\"O\": 1}}" energy=-449.8647766113281 free_energy=-449.8647766113281 stress="0.000783732277341187 0.00020214743562974036 9.568777750246227e-05 0.00020214743562974036 -0.0015722762327641249 1.714987047307659e-05 9.568777750246227e-05 1.714987047307659e-05 0.0003638744819909334" pbc="T T T"
Zn       5.97656459       7.65254571       6.60517597        0       0.01997078      -0.10948347      -0.07879642
Zn       6.03579045       4.85064357       6.53072515        1      -0.02586105       0.00852890       0.00491609
H        1.91099479       4.95498930       5.09024994        2      -0.12538673       0.10354058       0.13963017
H        2.85097733       7.23694847       9.19749247        3      -0.09206136       0.02856603      -0.10217664
H        1.48063382       8.25965727      10.97377399        4      -0.01079836      -0.03092292      -0.07422739
H        9.94160165       8.38411746      10.72720388        5      -0.20483108       0.14522325       0.25198203
H        8.83904922       7.48802278       8.71902105        6      -0.00682001      -0.01605841      -0.09662446