78
Lattice="7.99890044 0.0 0.0 0.1034300047540309 9.030947605734195 0.0 2.285877698439179 4.326619878269062 11.502363086674261" Properties=species:S:1:pos:R:3:spacegroup_kinds:I:1:forces:R:3 spacegroup="P 1" unit_cell=conventional occupancy="_JSON {\"0\": {\"Cu\": 1}, \"1\": {\"Cu\": 1}, \"2\": {\"H\": 1}, \"3\": {\"H\": 1}, \"4\": {\"H\": 1}, \"5\": {\"H\": 1}, \"6\": {\"H\": 1}, \"7\": {\"H\": 1}, \"8\": {\"H\": 1}, \"9\": {\"H\": 1}, \"10\": {\"H\": 1}, \"11\": {\"H\": 1}, \"12\": {\"H\": 1}, \"13\": {\"H\": 1}, \"14\": {\"H\": 1}, \"15\": {\"H\": 1}, \"16\": {\"H\": 1}, \"17\": {\"H\": 1}, \"18\": {\"H\": 1}, \"19\": {\"H\": 1}, \"20\": {\"H\": 1}, \"21\": {\"H\": 1}, \"22\": {\"H\": 1}, \"23\": {\"H\": 1}, \"24\": {\"H\": 1}, \"25\": {\"H\": 1}, \"26\": {\"H\": 1}, \"27\": {\"H\": 1}, \"28\": {\"H\": 1}, \"29\": {\"H\": 1}, \"30\": {\"C\": 1}, \"31\": {\"C\": 1}, \"32\": {\"C\": 1}, \"33\": {\"C\": 1}, \"34\": {\"C\": 1}, \"35\": {\"C\": 1}, \"36\": {\"C\": 1}, \"37\": {\"C\": 1}, \"38\": {\"C\": 1}, \"39\": {\"C\": 1}, \"40\": {\"C\": 1}, \"41\": {\"C\": 1}, \"42\": {\"C\": 1}, \"43\": {\"C\": 1}, \"44\": {\"C\": 1}, \"45\": {\"C\": 1}, \"46\": {\"C\": 1}, \"47\": {\"C\": 1}, \"48\": {\"C\": 1}, \"49\": {\"C\": 1}, \"50\": {\"C\": 1}, \"51\": {\"C\": 1}, \"52\": {\"C\": 1}, \"53\": {\"C\": 1}, \"54\": {\"C\": 1}, \"55\": {\"C\": 1}, \"56\": {\"C\": 1}, \"57\": {\"C\": 1}, \"58\": {\"C\": 1}, \"59\": {\"C\": 1}, \"60\": {\"C\": 1}, \"61\": {\"C\": 1}, \"62\": {\"N\": 1}, \"63\": {\"N\": 1}, \"64\": {\"N\": 1}, \"65\": {\"N\": 1}, \"66\": {\"N\": 1}, \"67\": {\"N\": 1}, \"68\": {\"N\": 1}, \"69\": {\"N\": 1}, \"70\": {\"N\": 1}, \"71\": {\"N\": 1}, \"72\": {\"N\": 1}, \"73\": {\"N\": 1}, \"74\": {\"Cl\": 1}, \"75\": {\"Cl\": 1}, \"76\": {\"Cl\": 1}, \"77\": {\"Cl\": 1}}" energy=-510.82403564453125 free_energy=-510.82403564453125 stress="-0.004576518665999174 0.0004776370769832283 -0.0017361142672598362 0.0004776370769832283 -0.004426360130310059 8.343628724105656e-05 -0.0017361142672598362 8.343628724105656e-05 -0.0029866681434214115" pbc="T T T"
Cu       1.14295729       2.16334369       5.75114725        0      -0.01926945      -0.00318669      -0.00583361
Cu       5.19407859       6.67878928       5.75118538        1      -0.01667181      -0.00055002      -0.01847421
H        6.72078647       9.18548645       6.25511271        2      -0.15769742      -0.06225742       0.01496725
H        3.66566552       4.17489551       5.24447022        3       0.16331373       0.01248642       0.04855078
H        7.18427979       3.12896648       3.34064922        4      -0.12600249       0.00973099      -0.08022536
H        3.20391754      10.23091845       8.15972183        5       0.09034194      -0.08011129       0.12289700
H        4.19545357       2.99560168       2.84758780        6       0.17428105       0.02646355      -0.01461816
H        6.19173895      10.36289407       8.65388386        7      -0.17552511      -0.03881738       0.02137643
H        3.85096110       1.26570080       2.72355281        8      -0.06567454      -0.03747962      -0.13020648
H        6.53670154      12.09141765       8.78014161        9       0.04090574       0.02550861       0.12026334
H        5.35507359       4.14768511       1.18922152       10       0.03038207       0.02421123      -0.04604536
H        5.03075877       9.21022092      10.31180900       11      -0.02600586      -0.00376190       0.04915495
H        8.82482561       8.54269827      10.49300274       12      -0.04701725      -0.00879383       0.07183874
H        1.56178366       4.81559327       1.00860899       13       0.03836304      -0.02600783      -0.06443250
H        5.03245994       8.49410191       2.22559617       14       0.01627450       0.04156902      -0.00466111
H        5.35367111       4.86444213       9.27584810       15       0.00548385      -0.02817789      -0.03921968
H        5.61441283       6.42522071       1.07278065       16      -0.00809189      -0.07437383       0.02570867
H        4.77237790       6.93234411      10.42676736       17      -0.00961893      -0.00913040       0.01747990
H        8.97904861      10.82006588      10.29837274       18      -0.00619055       0.01136177       0.01013345
H        1.40656096       2.53881770       1.20129930       19       0.00212937       0.01993880       0.00085782
H        9.38621821       3.92280524       9.24350351       20       0.00567821       0.03642702      -0.05017878
H        0.99956687       9.43593539       2.25775501       21      -0.00069004      -0.04020267       0.03104571
H        2.04327440       7.50068316       8.80538810       22      -0.14830986       0.04787192      -0.00472105
H        8.34277927       5.85782273       2.69576113       23       0.16117701      -0.00219705      -0.00891865
H        2.44292271       5.77847146       8.86022725       24      -0.00575560       0.00216604       0.10119186
H        7.94329226       7.57883313       2.64004490       25      -0.05347233       0.06496668      -0.10063486
H        7.02353741       7.49962519       8.31158735       26       0.11587365      -0.01332840       0.05205797
H        3.36296831       5.85820408       3.18964267       27      -0.06733610      -0.06516652      -0.12570468
H        7.83588789       4.84411609       5.15548727       28       0.15090327      -0.07945378      -0.02030596
H        2.55202539       8.51308483       6.34570705       29      -0.14688379       0.06039035      -0.00755182
C        6.55885385       9.82850407       5.40422833       30       0.04499929      -0.00517658      -0.13057557
C        3.82653657       3.52956322       6.09666077       31       0.00217897       0.05021724       0.09765481
C        6.78008687       2.32204232       3.93256942       32       0.24867658       0.09271309      -0.08069627
C        3.60782645      11.03389077       7.56667400       33      -0.22016661       0.00324774       0.05155955
C        4.64633422       2.01348362       2.63933762       34       0.05006361      -0.11487444       0.00648701
C        5.73947123      11.34399384       8.86266192       35       0.00886846       0.14222415      -0.02979946
C        5.31587280       2.01128367       1.29474259       36      -0.22915004      -0.05329236       0.23490179
C        5.07161234      11.34806824      10.20684980       37       0.21723038       0.00107742      -0.23756948
C        5.62528815       3.21696506       0.68543179       38       0.13140972       0.19607228      -0.29974347
C        4.76257320      10.14189481      10.81616340       39      -0.15458655      -0.23136385       0.31659850
C        8.57681029       7.58129526      10.95029785       40      -0.11401293       0.20274502       0.29011732
C        1.80946396       5.77547818       0.55081647       41       0.13725017      -0.10795042      -0.29349372
C        8.92782963       6.41398078      10.29036485       42       0.24205023       0.01274421      -0.28626472
C        1.45922667       6.94382293       1.21174762       43      -0.22891864       0.01086334       0.19349301
C        8.60576174       5.14656945      10.87082064       44       0.03351035       0.01890270      -0.09531159
C        1.78142065       8.21237758       0.63083361       45      -0.01533091      -0.07188021       0.03650339
C        5.66932637       0.78102969       0.65215783       46      -0.03532294       0.04130438       0.13329560
C        4.71834555      12.57731830      10.84747604       47       0.00300947      -0.00113454      -0.05031965
C        5.50008433       8.55186443       1.24093279       48       0.01756760      -0.05785841      -0.01782879
C        4.88715216       4.80784507      10.25941719       49      -0.02089391      -0.11149403       0.02074307
C        5.83011945       7.37523141       0.58775370       50       0.06252153       0.03630808      -0.12369544
C        4.55666117       5.97948339      10.91331116       51      -0.06620710       0.24615595       0.11891252
C        8.72914583      11.74181776      10.82695549       52      -0.04772163      -0.14850585       0.11594146
C        1.65705234       1.61787403       0.67399742       53       0.04523801       0.02236924      -0.12521261
C        8.91641682       3.92284702      10.22670631       54      -0.03333461       0.01970216       0.03717777
C        1.46897612       9.43539522       1.27367961       55       0.03855028       0.04225766      -0.01005341
C        9.61847001       6.49807205       8.95857278       56       0.04318476      -0.21288639       0.12916869
C        0.76603456       6.86238766       2.53943151       57       0.05761868       0.08049306       0.00243330
C        7.49276167       6.77999484       7.65623174       58      -0.35393894       0.13242233       0.05090269
C        2.89541102       6.57603658       3.84250358       59       0.20857647       0.02047482       0.03592989
C        7.93084269       5.41094477       6.06845146       60       0.00748761      -0.01300111       0.18072912
C        2.45724096       7.94677383       5.43132931       61      -0.05513795       0.03672742      -0.17823499
N        7.45419944      10.79137737       5.00530639       62       0.00588661       0.02424942      -0.03466740
N        2.93122078       2.56695124       6.49562260       63       0.04513654      -0.03727050       0.06152260
N        5.48126281       9.77073542       4.63569979       64       0.05908446      -0.10872118       0.10324767
N        4.90652675       3.58591668       6.86383825       65      -0.10572261       0.10473143      -0.10325302
N        5.60278133       1.71513117       3.70708226       66      -0.38852829      -0.01648570      -0.11449412
N        4.78479169      11.64175673       7.79394282       67       0.35288829       0.02606612       0.05709189
N        8.69528480       6.22155506       7.86244326       68       0.34190685      -0.11243829      -0.01521993
N        1.69257680       7.13776039       3.63846943       69      -0.41342798       0.06701757      -0.09539694
N        8.99211196       5.34158591       6.85916112       70      -0.02412969      -0.08728343      -0.10446425
N        1.39446825       8.01717026       4.64072006       71       0.09517613       0.06268965       0.11725219
N        6.97676015       6.28687711       6.52227219       72      -0.00712019       0.08268313       0.12290182
N        3.40893436       7.07052097       4.97610902       73       0.10426098      -0.09794337      -0.06111406
Cl       8.73422215       9.99636017       7.67366376       74       0.16262847      -0.06523243      -0.04602865
Cl       1.65343176       3.36140036       3.82905848       75      -0.16479523       0.06446338       0.04060820
Cl       5.76479409       5.56486450       3.79793128       76      -0.17102063      -0.05638377       0.05055509
Cl       4.62307458       7.79315698       7.69952937       77       0.16761091       0.06015821      -0.03808206
78
Lattice="7.99890044 0.0 0.0 0.1034300047540309 9.030947605734195 0.0 2.285877698439179 4.326619878269062 11.502363086674261" Properties=species:S:1:pos:R:3:spacegroup_kinds:I:1:forces:R:3 spacegroup="P 1" unit_cell=conventional occupancy="_JSON {\"0\": {\"Cu\": 1}, \"1\": {\"Cu\": 1}, \"2\": {\"H\": 1}, \"3\": {\"H\": 1}, \"4\": {\"H\": 1}, \"5\": {\"H\": 1}, \"6\": {\"H\": 1}, \"7\": {\"H\": 1}, \"8\": {\"H\": 1}, \"9\": {\"H\": 1}, \"10\": {\"H\": 1}, \"11\": {\"H\": 1}, \"12\": {\"H\": 1}, \"13\": {\"H\": 1}, \"14\": {\"H\": 1}, \"15\": {\"H\": 1}, \"16\": {\"H\": 1}, \"17\": {\"H\": 1}, \"18\": {\"H\": 1}, \"19\": {\"H\": 1}, \"20\": {\"H\": 1}, \"21\": {\"H\": 1}, \"22\": {\"H\": 1}, \"23\": {\"H\": 1}, \"24\": {\"H\": 1}, \"25\": {\"H\": 1}, \"26\": {\"H\": 1}, \"27\": {\"H\": 1}, \"28\": {\"H\": 1}, \"29\": {\"H\": 1}, \"30\": {\"C\": 1}, \"31\": {\"C\": 1}, \"32\": {\"C\": 1}, \"33\": {\"C\": 1}, \"34\": {\"C\": 1}, \"35\": {\"C\": 1}, \"36\": {\"C\": 1}, \"37\": {\"C\": 1}, \"38\": {\"C\": 1}, \"39\": {\"C\": 1}, \"40\": {\"C\": 1}, \"41\": {\"C\": 1}, \"42\": {\"C\": 1}, \"43\": {\"C\": 1}, \"44\": {\"C\": 1}, \"45\": {\"C\": 1}, \"46\": {\"C\": 1}, \"47\": {\"C\": 1}, \"48\": {\"C\": 1}, \"49\": {\"C\": 1}, \"50\": {\"C\": 1}, \"51\": {\"C\": 1}, \"52\": {\"C\": 1}, \"53\": {\"C\": 1}, \"54\": {\"C\": 1}, \"55\": {\"C\": 1}, \"56\": {\"C\": 1}, \"57\": {\"C\": 1}, \"58\": {\"C\": 1}, \"59\": {\"C\": 1}, \"60\": {\"C\": 1}, \"61\": {\"C\": 1}, \"62\": {\"N\": 1}, \"63\": {\"N\": 1}, \"64\": {\"N\": 1}, \"65\": {\"N\": 1}, \"66\": {\"N\": 1}, \"67\": {\"N\": 1}, \"68\": {\"N\": 1}, \"69\": {\"N\": 1}, \"70\": {\"N\": 1}, \"71\": {\"N\": 1}, \"72\": {\"N\": 1}, \"73\": {\"N\": 1}, \"74\": {\"Cl\": 1}, \"75\": {\"Cl\": 1}, \"76\": {\"Cl\": 1}, \"77\": {\"Cl\": 1}}" energy=-510.8446960449219 free_energy=-510.8446960449219 stress="-0.003690623212605715 0.0002811778977047652 -0.0016113704768940806 0.0002811778977047652 -0.0026420000940561295 2.0207186025800183e-05 -0.0016113704768940806 2.0207186025800183e-05 -0.003439327934756875" pbc="T T T"
Cu       1.14194978       2.16433595       5.74985847        0      -0.01369102      -0.00180791      -0.00484456
Cu       5.19216017       6.68061072       5.74955743        1       0.00045968      -0.01050785      -0.01721129
H        6.71834073       9.18538556       6.25474678        2      -0.14511944      -0.01888425      -0.02504559
H        3.66748934       4.17663440       5.24436887        3       0.15150760      -0.00457705       0.05779232
H        7.18174837       3.12843614       3.33815720        4      -0.06600457       0.10839020      -0.14512882
H        3.20519526      10.23024568       8.16072507        5       0.05943194      -0.10932855       0.12895785
H        4.19645465       2.99776739       2.84662101        6       0.20097822      -0.05528694      -0.03127138
H        6.18896294      10.36196580       8.65434043        7      -0.18277371       0.01493949       0.02479915
H        3.84901713       1.26497772       2.72095450        8      -0.05037802      -0.01876685      -0.12949067
H        6.53692892      12.09223313       8.78121824        9       0.06671205       0.04366795       0.11347227
H        5.35483060       4.14898159       1.18806406       10       0.02982085       0.02178758      -0.05424027
H        5.03015153       9.20984326      10.31164736       11      -0.03468281      -0.00611943       0.06121315
H        8.82286913       8.54382323      10.49352855       12      -0.03189387       0.02638096       0.06401014
H        1.56156852       4.81471154       1.00716951       13       0.04428975      -0.03351240      -0.06956648
H        5.03159671       8.49528923       2.22439226       14       0.01113992       0.03180456       0.00260651
H        5.35353622       4.86429407       9.27429129       15      -0.01325519      -0.03143781      -0.00486732
H        5.61488833       6.42411326       1.07175901       16       0.00544412      -0.00422385      -0.00803562
H        4.77211929       6.93293649      10.42537499       17      -0.01121787       0.00186889       0.01919954
H        8.97836117      10.82051593      10.29725569       18      -0.00831989       0.02542959       0.02611344
H        1.40585105       2.53929824       1.20039309       19       0.00527412       0.02668203       0.00197227
H        9.38637313       3.92465647       9.24078880       20      -0.03085983       0.02540354       0.01320103
H        0.99872746       9.43617348       2.25771135       21       0.01311040      -0.03611849       0.00279683
H        2.04079661       7.50193983       8.80515924       22      -0.15348509      -0.00924758       0.00440052
H        8.34348384       5.85837423       2.69620822       23       0.15940732       0.01005985      -0.01484298
H        2.44341680       5.77865790       8.86155601       24       0.02811176      -0.02478308       0.09813726
H        7.94045265       7.58039314       2.63722391       25      -0.02154516       0.03742961      -0.09648716
H        7.02508692       7.50139578       8.31192852       26       0.08547971       0.02120969       0.07910433
H        3.36123051       5.85767456       3.18786932       27      -0.06388310      -0.05066380      -0.10518858
H        7.83673041       4.84368510       5.15506697       28       0.13641848      -0.04304719       0.02262570
H        2.54918022       8.51410977       6.34417250       29      -0.14238948       0.03703355      -0.03388397
C        6.55921223       9.82932689       5.40201907       30       0.00507346      -0.04648504      -0.08191476
C        3.82574119       3.53014966       6.09677792       31      -0.03470153       0.05429407       0.05357146
C        6.78226983       2.32439140       3.93032058       32      -0.06326073      -0.15269145      -0.05329427
C        3.60500965      11.03211332       7.56543291       33       0.03412491       0.15822569       0.09568314
C        4.64667554       2.01191302       2.63754033       34      -0.08008826      -0.02856575       0.08031511
C        5.73914345      11.34654901       8.86253894       35       0.06132305       0.03189400      -0.05088395
C        5.31339068       2.01023042       1.29691376       36      -0.10648084       0.05879955      -0.00428724
C        5.07362919      11.34916682      10.20401951       37       0.08167426      -0.09139198      -0.01853548
C        5.62510665       3.21889363       0.68247242       38       0.03899091       0.05927137      -0.08415493
C        4.75985309      10.13998113      10.81847730       39       0.02645429      -0.06363171       0.01100405
C        8.57719150       7.58384887      10.95246172       40      -0.04457984       0.05479026       0.10241146
C        1.81135227       5.77340460       0.54787346       41      -0.04290038       0.04916263       0.01117471
C        8.92932145       6.41433475      10.28740841       42       0.15151639       0.10682683      -0.11487025
C        1.45681327       6.94465674       1.21436356       43      -0.09145609      -0.09577148      -0.05518589
C        8.60562409       5.14868763      10.86828800       44       0.00306272      -0.01569881      -0.04322815
C        1.78089258       8.21245726       0.63022751       45      -0.05446305      -0.09335649       0.10209432
C        5.66837992       0.78121726       0.65152126       46      -0.04151881       0.08634657       0.14030114
C        4.71759459      12.57871148      10.84631538       47       0.03212172      -0.12957248      -0.08035980
C        5.49888190       8.55206226       1.23995469       48       0.03638846      -0.03614903      -0.04718049
C        4.88611007       4.80639803      10.25857374       49      -0.02789572       0.07949324       0.03580216
C        5.83025146       7.37641523       0.58539268       50      -0.00142805      -0.07118039       0.02628168
C        4.55510770       5.98182843      10.91415564       51       0.02042054       0.11251828      -0.05059534
C        8.72866873      11.74183622      10.82799330       52       0.00694334      -0.08113800      -0.04266116
C        1.65792651       1.61963128       0.67182748       53      -0.03275282      -0.04473463       0.01480290
C        8.91433240       3.92441527      10.22537547       54       0.00848958      -0.03691222      -0.00492424
C        1.46854397       9.43522483       1.27287683       55       0.04989848       0.10555662      -0.02712035
C        9.61872705       6.49600378       8.95914703       56       0.06364763      -0.08191633       0.04328702
C        0.76554099       6.86396702       2.53870249       57      -0.03171432       0.06622799       0.03146008
C        7.48980851       6.78212856       7.65557392       58      -0.06954193      -0.01473156       0.08028296
C        2.89725187       6.57666617       3.84297573       59      -0.00553650       0.03270644      -0.12843531
C        7.92966655       5.41178777       6.06935410       60       0.00513630      -0.06795066       0.08970620
C        2.45520967       7.94683761       5.42906912       61       0.01369941       0.07361622      -0.08827266
N        7.45359033      10.79289436       5.00271323       62       0.03410739       0.02174388      -0.02190210
N        2.93060681       2.56722331       6.49530576       63       0.01242462      -0.07045969       0.06800653
N        5.47941511       9.76990542       4.63637078       64       0.11198404      -0.04301077       0.04270233
N        4.90418737       3.58637594       6.86227142       65      -0.00197501       0.11312564      -0.01849741
N        5.59982070       1.71340067       3.70442778       66      -0.15662691       0.05392977      -0.00265896
N        4.78688389      11.64380692       7.79528299       67       0.07186610      -0.05213475      -0.08598708
N        8.69804525       6.22054932       7.86119572       68       0.12844919      -0.03245711      -0.04495981
N        1.68958454       7.13982743       3.63622713       69      -0.19022360       0.01536333       0.00849441
N        8.99279756       5.34023884       6.85683359       70      -0.07375279      -0.02321257      -0.05287883
N        1.39408578       8.01887578       4.63983674       71       0.04556255       0.04370104       0.06439759
N        6.97482627       6.28822650       6.52312483       72       0.01356363       0.05895811       0.09885686
N        3.40915043       7.07042635       4.97403986       73       0.07731393      -0.04805917       0.00218894
Cl       8.73609523       9.99529727       7.67349017       74       0.15626301      -0.06104562      -0.05151035
Cl       1.65049665       3.36432248       3.82656630       75      -0.15968777       0.06094924       0.04799718
Cl       5.76184604       5.56198093       3.79587553       76      -0.16696778      -0.05044697       0.05888149
Cl       4.62576330       7.79548863       7.69744595       77       0.15896577       0.06142947      -0.03570123
78
Lattice="7.99890044 0.0 0.0 0.1034300047540309 9.030947605734195 0.0 2.285877698439179 4.326619878269062 11.502363086674261" Properties=species:S:1:pos:R:3:spacegroup_kinds:I:1:forces:R:3 spacegroup="P 1" unit_cell=conventional occupancy="_JSON {\"0\": {\"Cu\": 1}, \"1\": {\"Cu\": 1}, \"2\": {\"H\": 1}, \"3\": {\"H\": 1}, \"4\": {\"H\": 1}, \"5\": {\"H\": 1}, \"6\": {\"H\": 1}, \"7\": {\"H\": 1}, \"8\": {\"H\": 1}, \"9\": {\"H\": 1}, \"10\": {\"H\": 1}, \"11\": {\"H\": 1}, \"12\": {\"H\": 1}, \"13\": {\"H\": 1}, \"14\": {\"H\": 1}, \"15\": {\"H\": 1}, \"16\": {\"H\": 1}, \"17\": {\"H\": 1}, \"18\": {\"H\": 1}, \"19\": {\"H\": 1}, \"20\": {\"H\": 1}, \"21\": {\"H\": 1}, \"22\": {\"H\": 1}, \"23\": {\"H\": 1}, \"24\": {\"H\": 1}, \"25\": {\"H\": 1}, \"26\": {\"H\": 1}, \"27\": {\"H\": 1}, \"28\": {\"H\": 1}, \"29\": {\"H\": 1}, \"30\": {\"C\": 1}, \"31\": {\"C\": 1}, \"32\": {\"C\": 1}, \"33\": {\"C\": 1}, \"34\": {\"C\": 1}, \"35\": {\"C\": 1}, \"36\": {\"C\": 1}, \"37\": {\"C\": 1}, \"38\": {\"C\": 1}, \"39\": {\"C\": 1}, \"40\": {\"C\": 1}, \"41\": {\"C\": 1}, \"42\": {\"C\": 1}, \"43\": {\"C\": 1}, \"44\": {\"C\": 1}, \"45\": {\"C\": 1}, \"46\": {\"C\": 1}, \"47\": {\"C\": 1}, \"48\": {\"C\": 1}, \"49\": {\"C\": 1}, \"50\": {\"C\": 1}, \"51\": {\"C\": 1}, \"52\": {\"C\": 1}, \"53\": {\"C\": 1}, \"54\": {\"C\": 1}, \"55\": {\"C\": 1}, \"56\": {\"C\": 1}, \"57\": {\"C\": 1}, \"58\": {\"C\": 1}, \"59\": {\"C\": 1}, \"60\": {\"C\": 1}, \"61\": {\"C\": 1}, \"62\": {\"N\": 1}, \"63\": {\"N\": 1}, \"64\": {\"N\": 1}, \"65\": {\"N\": 1}, \"66\": {\"N\": 1}, \"67\": {\"N\": 1}, \"68\": {\"N\": 1}, \"69\": {\"N\": 1}, \"70\": {\"N\": 1}, \"71\": {\"N\": 1}, \"72\": {\"N\": 1}, \"73\": {\"N\": 1}, \"74\": {\"Cl\": 1}, \"75\": {\"Cl\": 1}, \"76\": {\"Cl\": 1}, \"77\": {\"Cl\": 1}}" energy=-510.8563537597656 free_energy=-510.8563537597656 stress="-0.003792278468608856 0.0002983057638630271 -0.0018505865009501576 0.0002983057638630271 -0.0021370993927121162 -4.089347930857912e-05 -0.0018505865009501576 -4.089347930857912e-05 -0.003573465161025524" pbc="T T T"
Cu       1.14123598       2.16504058       5.74931279        0      -0.01969687      -0.00121248      -0.01168380
Cu       5.19109411       6.68162938       5.74776516        1       0.01306539      -0.01392036      -0.00661921
H        6.71585447       9.18633455       6.25335241        2      -0.13467817      -0.02409450      -0.02043141
H        3.66829845       4.17755588       5.24443385        3       0.13775083       0.00547834       0.03529127
H        7.17930498       3.13063834       3.33530049        4      -0.08958993       0.06024848      -0.11245814
H        3.20628322      10.22867147       8.16195918        5       0.08433951      -0.04036205       0.07890033
H        4.19850766       2.99517445       2.84587858        6       0.14295781       0.03076689      -0.01447251
H        6.18653017      10.36325835       8.65320489        7      -0.15388310      -0.01327383       0.01673041
H        3.84779948       1.26394301       2.71848955        8      -0.05495654      -0.01665317      -0.12103210
H        6.53811801      12.09470805       8.78168875        9       0.02213530      -0.00194451       0.11296801
H        5.35409343       4.15118307       1.18617044       10       0.03076504       0.01863258      -0.05938610
H        5.02904973       9.21030822      10.31063422       11      -0.03222538      -0.02302670       0.06078711
H        8.82118623       8.54555153      10.49329085       12      -0.03295499       0.03282683       0.06673533
H        1.56200024       4.81576322       1.00540037       13       0.03476945      -0.05530573      -0.06203076
H        5.03037885       8.49515747       2.22281349       14       0.00377263       0.03136191       0.02450711
H        5.35254529       4.86383419       9.27371343       15      -0.00521566      -0.02526715      -0.01947859
H        5.61417283       6.42427601       1.07123158       16       0.00694377      -0.00473711      -0.00856684
H        4.77104732       6.93321713      10.42378462       17      -0.00525285       0.03825371       0.00627954
H        8.97721632      10.82039880      10.29599090       18      -0.00011102       0.01012670       0.01397049
H        1.40513453       2.53987389       1.19888729       19       0.00686796       0.00513447      -0.00871833
H        9.38424389       3.92588441       9.24050208       20      -0.01385204       0.02229086      -0.02799779
H        0.99838484       9.43652099       2.25647728       21       0.01108264      -0.02497952       0.01619470
H        2.03785420       7.50084455       8.80409399       22      -0.12205438       0.02536917      -0.00380199
H        8.34509067       5.85945129       2.69578360       23       0.13787292      -0.00780777      -0.01326162
H        2.44346594       5.77862934       8.86201243       24       0.04140811      -0.03590012       0.09468680
H        7.93811740       7.58212643       2.63484145       25       0.01172884       0.00388297      -0.09868388
H        7.02683770       7.50375681       8.31177028       26       0.07772677       0.01466317       0.07165375
H        3.35991410       5.85756568       3.18638891       27      -0.06385148      -0.05000742      -0.11021632
H        7.83730742       4.84429120       5.15514791       28       0.12366096      -0.06416854      -0.01535547
H        2.54624007       8.51501685       6.34258964       29      -0.13642526       0.02025036      -0.05591877
C        6.55774906       9.82856296       5.39937390       30       0.07771778       0.00685264      -0.04238089
C        3.82497034       3.53083209       6.09605837       31      -0.07290050       0.02482219       0.06227954
C        6.78060319       2.32442552       3.92817473       32      -0.05473095      -0.09164289      -0.08343336
C        3.60395950      11.03437366       7.56601223       33       0.02640930       0.06115898       0.15109214
C        4.64509655       2.01134772       2.63733824       34      -0.05453718      -0.07737905       0.05019206
C        5.73886009      11.34750237       8.86133565       35       0.10407054       0.07143477      -0.04120928
C        5.31088296       2.01178409       1.29712932       36      -0.04325435       0.04446553      -0.08860594
C        5.07377137      11.34760434      10.20266418       37       0.07346848      -0.02040838      -0.01780560
C        5.62439462       3.22099010       0.68027343       38      -0.02894079       0.00634828       0.03362001
C        4.75914897      10.13995143      10.81765574       39       0.03267997      -0.07921534      -0.00703613
C        8.57527212       7.58572301      10.95240580       40       0.02915015       0.03251961      -0.01267534
C        1.81012818       5.77407267       0.54598910       41      -0.04826493       0.02769288       0.03148678
C        8.93090905       6.41709339      10.28477912       42       0.05520155       0.02946268       0.00409598
C        1.45483426       6.94379868       1.21356308       43      -0.06591291      -0.03469694      -0.06772198
C        8.60431626       5.15007601      10.86622280       44       0.01478161       0.01419440      -0.03201713
C        1.77997077       8.21168369       0.63023194       45      -0.02892337      -0.05204523       0.06160861
C        5.66762571       0.78225458       0.65067848       46      -0.05608547       0.10427870       0.14977255
C        4.71786422      12.57726794      10.84496187       47       0.00315933      -0.07037206      -0.03581950
C        5.49834437       8.55209126       1.23953303       48       0.05249083      -0.00831514      -0.09482328
C        4.88558134       4.80670760      10.25770402       49      -0.04142779       0.07285884       0.07249808
C        5.82970626       7.37650453       0.58473507       50       0.01520647      -0.06917822      -0.00273395
C        4.55448963       5.98375313      10.91319267       51       0.02726009      -0.00775434      -0.08143593