70
Lattice="9.33638899 0.0 0.0 -1.3156882000103751 9.33730928905279 0.0 -3.6641907771254836 -0.808543864661197 8.864673695697958" Properties=species:S:1:pos:R:3:spacegroup_kinds:I:1:forces:R:3 spacegroup="P 1" unit_cell=conventional occupancy="_JSON {\"0\": {\"Zn\": 1}, \"1\": {\"Zn\": 1}, \"2\": {\"H\": 1}, \"3\": {\"H\": 1}, \"4\": {\"H\": 1}, \"5\": {\"H\": 1}, \"6\": {\"H\": 1}, \"7\": {\"H\": 1}, \"8\": {\"H\": 1}, \"9\": {\"H\": 1}, \"10\": {\"H\": 1}, \"11\": {\"H\": 1}, \"12\": {\"H\": 1}, \"13\": {\"H\": 1}, \"14\": {\"H\": 1}, \"15\": {\"H\": 1}, \"16\": {\"H\": 1}, \"17\": {\"H\": 1}, \"18\": {\"H\": 1}, \"19\": {\"H\": 1}, \"20\": {\"H\": 1}, \"21\": {\"H\": 1}, \"22\": {\"H\": 1}, \"23\": {\"H\": 1}, \"24\": {\"C\": 1}, \"25\": {\"C\": 1}, \"26\": {\"C\": 1}, \"27\": {\"C\": 1}, \"28\": {\"C\": 1}, \"29\": {\"C\": 1}, \"30\": {\"C\": 1}, \"31\": {\"C\": 1}, \"32\": {\"C\": 1}, \"33\": {\"C\": 1}, \"34\": {\"C\": 1}, \"35\": {\"C\": 1}, \"36\": {\"C\": 1}, \"37\": {\"C\": 1}, \"38\": {\"C\": 1}, \"39\": {\"C\": 1}, \"40\": {\"C\": 1}, \"41\": {\"C\": 1}, \"42\": {\"C\": 1}, \"43\": {\"C\": 1}, \"44\": {\"C\": 1}, \"45\": {\"C\": 1}, \"46\": {\"C\": 1}, \"47\": {\"C\": 1}, \"48\": {\"C\": 1}, \"49\": {\"C\": 1}, \"50\": {\"C\": 1}, \"51\": {\"C\": 1}, \"52\": {\"N\": 1}, \"53\": {\"N\": 1}, \"54\": {\"N\": 1}, \"55\": {\"N\": 1}, \"56\": {\"N\": 1}, \"57\": {\"N\": 1}, \"58\": {\"N\": 1}, \"59\": {\"N\": 1}, \"60\": {\"O\": 1}, \"61\": {\"O\": 1}, \"62\": {\"O\": 1}, \"63\": {\"O\": 1}, \"64\": {\"O\": 1}, \"65\": {\"O\": 1}, \"66\": {\"O\": 1}, \"67\": {\"O\": 1}, \"68\": {\"O\": 1}, \"69\": {\"O\": 1}}" energy=-476.1769104003906 free_energy=-476.1769104003906 stress="0.0013218300882726908 0.001177069148980081 -0.0007183551788330078 0.001177069148980081 -0.003868968691676855 0.0009281387901864946 -0.0007183551788330078 0.0009281387901864946 -0.0024312064051628113" pbc="T T T"
Zn       7.08972397       5.29373348       0.03110139        0       0.15733227      -0.06728830       0.01727097
Zn      -2.73242801       3.23456551       8.83550297        1      -0.16085629       0.04529690      -0.04824749
H        1.39789688       3.58361383       4.97708347        2       0.21380024      -0.09575925       0.05786069
H        2.95932979       4.94562399       3.88799379        3      -0.24353202       0.10552184      -0.03078660
H        0.36805767       2.70630635       6.13522140        4       0.07656705      -0.19389454       0.03350665
H        3.98988515       5.82499053       2.72864867        5      -0.12559645       0.09270616      -0.01109055
H        0.74340415       5.51132749       4.03209057        6      -0.07325373       0.01280624       0.07163523
H        3.61320315       3.01719849       4.83160189        7       0.14630586      -0.01718695      -0.09855223
H       -1.12930608       7.06074341       3.46029986        8      -0.01232233       0.04674333      -0.01922072
H        5.48790950       1.47054037       5.40632695        9       0.01222199      -0.01546892      -0.02498654
H        6.01889157       6.78539033       4.68615053       10      -0.10353904       0.07258554      -0.11783120
H       -1.66242192       1.74425892       4.17907652       11       0.03738365      -0.02133410       0.09957585
H        0.40701155       7.07344458       0.57483677       12       0.08938736      -0.07752964      -0.04716837
H        3.94702245       1.45362367       8.29079158       13       0.00463793       0.04262160       0.01445655
H       -0.85870087       0.66372063       2.17034495       14      -0.02251617      -0.02032508       0.01673685
H        5.21502561       7.86554713       6.69593620       15       0.03456737      -0.00992879      -0.03102340
H        1.63185326       1.38438759       1.71671263       16      -0.08547541      -0.02439186       0.05064017
H        2.72354441       7.14824935       7.14579260       17       0.11324193      -0.06262454      -0.06428313
H        2.71726068       0.17462079       1.00288366       18       0.02224898      -0.03582282      -0.07449147
H        1.64035232       8.35031192       7.86169806       19      -0.05332702       0.06262576       0.10904763
H        1.04520223       1.28989302       4.11177905       20       0.01372281      -0.04103148       0.01225832
H        3.31366556       7.24213511       4.74975330       21       0.01348923       0.02054006       0.01965620
H        1.74600263       0.62448325       6.42176272       22      -0.03553836       0.06431018      -0.02804148
H        2.61316920       7.90883908       2.44258192       23       0.03048858      -0.07269122      -0.01181102
C        1.65493648       4.15081190       7.05403726       24      -0.38385969       0.04131189      -0.43423203
C        2.69794329       4.37831900       1.81052823       25       0.59779364      -0.13304383       0.53931427
C        0.78614192       3.68790834       5.88516919       26       0.02703051       0.00986964      -0.03560349
C        3.56678623       4.84145465       2.97853078       27       0.14923085       0.00925142       0.06651157
C       -0.19847860       5.49998751       4.58338168       28      -0.19263171      -0.05696157      -0.01362878
C        4.55867800       3.02878791       4.28136562       29      -0.07693375       0.08088265       0.09575152
C       -1.24538715       6.33935875       4.26233483       30      -0.02711292       0.02984929       0.04472332
C        5.60125760       2.19079435       4.60083353       31       0.12333345      -0.14934114       0.08007938
C       -2.44870573       6.19555192       4.95834295       32      -0.00164518       0.09731203      -0.06652187
C        6.80392094       2.33670451       3.90559758       33       0.12720653      -0.29818100       0.17449307
C       -2.58787628       5.28464302       6.00396803       34      -0.06694391       0.03440798       0.02820857
C        6.94364563       3.24082431       2.86077440       35       0.02051491       0.15459679      -0.21199685
C       -1.46128269       4.47198189       6.37810499       36       0.21310519       0.12963241      -0.28722987
C        5.81468057       4.05700872       2.48627372       37      -0.08136533      -0.16161962       0.26554453
C        5.41005867       5.18265397       6.66447326       38       0.32155246       0.13470800      -0.31990296
C       -1.05316718       3.34285011       2.19932399       39      -0.34347296      -0.08038887       0.34390736
C       -0.49335428       7.59848296       0.86104692       40      -0.17351988      -0.01002434       0.05971457
C        4.85201844       0.93189458       8.00197950       41      -0.08298695      -0.02385991      -0.02763955
C       -1.84575572       9.07811808       1.70609892       42      -0.05089898      -0.06610963       0.02773282
C        6.20261068      -0.54940959       7.15944023       43       0.07158162       0.04119010      -0.04176895
C        1.95095190       0.33745453       1.76742759       44      -0.05603813       0.03162056      -0.05431366
C        2.40423035       8.19202615       7.09596597       45       0.10223468       0.08699477       0.03778949
C        2.44376030      -0.01985592       3.14259787       46       0.02762384       0.03130681      -0.37746018
C        1.90959982       8.55327058       5.72133981       47       0.14208366      -0.17402765       0.35187384
C        1.82861960       0.54557403       4.26758814       48      -0.18497598       0.17435664      -0.11685813
C        2.53094987       7.98594694       4.59805462       49      -0.00699779      -0.02563982      -0.06239767
C        2.21393801       0.16885419       5.54662651       50       0.05874689      -0.04414475       0.14014924
C        2.14097658       8.36317874       3.31476633       51      -0.02181840       0.04157093       0.09171678
N       -0.31152459       4.58929085       5.57897167       52      -0.02188386      -0.11304229       0.19378710
N        4.66858287       3.93756558       3.28725808       53      -0.07103112       0.30774167      -0.36545354
N        7.60273698       7.13738427       0.77726593       54       0.00851723      -0.22080690      -0.11341630
N       -3.24782624       1.39046851       8.08650953       55       0.18442324       0.33738625       0.13980587
N        6.73869525       8.06270698       1.31625502       56       0.27045697       0.21149334       0.08295894
N       -2.38218561       0.46538633       7.54860128       57      -0.22702646      -0.16831432      -0.06873485
N       -0.52159994       8.83231396       1.42650240       58      -0.09946793       0.15038484       0.13541207
N        4.88106079      -0.30289775       7.43861598       59      -0.08094424      -0.21688628      -0.16868469
O        2.56174235       3.30948613       7.43408860       60      -0.02337906       0.10019767       0.15496483
O        1.79778032       5.21625133       1.42883795       61      -0.20027280       0.12362516      -0.21976221
O        1.49918672       5.28652111       7.56358045       62       0.16248880      -0.05737424       0.20995958
O        2.85563405       3.24334527       1.30267913       63      -0.15047248      -0.06808597      -0.25338939
O       -1.38853735       3.62952705       7.31747061       64      -0.26576778      -0.08654548       0.28557768
O        5.74514488       4.90137778       1.54704354       65       0.24240778       0.02793851      -0.21658958
O        5.31317843       4.51357331       7.77855388       66       0.04165947      -0.19804081       0.32156467
O       -0.95389234       4.01384117       1.08618319       67      -0.06775852       0.18299833      -0.30903092
O        4.43304598       5.77688505       6.14541136       68       0.06894996       0.02720286       0.11461706
O       -0.07607768       2.75285527       2.72180864       69      -0.05117451      -0.05587137      -0.11665308
70
Lattice="9.33638899 0.0 0.0 -1.3156882000103751 9.33730928905279 0.0 -3.6641907771254836 -0.808543864661197 8.864673695697958" Properties=species:S:1:pos:R:3:spacegroup_kinds:I:1:forces:R:3 spacegroup="P 1" unit_cell=conventional occupancy="_JSON {\"0\": {\"Zn\": 1}, \"1\": {\"Zn\": 1}, \"2\": {\"H\": 1}, \"3\": {\"H\": 1}, \"4\": {\"H\": 1}, \"5\": {\"H\": 1}, \"6\": {\"H\": 1}, \"7\": {\"H\": 1}, \"8\": {\"H\": 1}, \"9\": {\"H\": 1}, \"10\": {\"H\": 1}, \"11\": {\"H\": 1}, \"12\": {\"H\": 1}, \"13\": {\"H\": 1}, \"14\": {\"H\": 1}, \"15\": {\"H\": 1}, \"16\": {\"H\": 1}, \"17\": {\"H\": 1}, \"18\": {\"H\": 1}, \"19\": {\"H\": 1}, \"20\": {\"H\": 1}, \"21\": {\"H\": 1}, \"22\": {\"H\": 1}, \"23\": {\"H\": 1}, \"24\": {\"C\": 1}, \"25\": {\"C\": 1}, \"26\": {\"C\": 1}, \"27\": {\"C\": 1}, \"28\": {\"C\": 1}, \"29\": {\"C\": 1}, \"30\": {\"C\": 1}, \"31\": {\"C\": 1}, \"32\": {\"C\": 1}, \"33\": {\"C\": 1}, \"34\": {\"C\": 1}, \"35\": {\"C\": 1}, \"36\": {\"C\": 1}, \"37\": {\"C\": 1}, \"38\": {\"C\": 1}, \"39\": {\"C\": 1}, \"40\": {\"C\": 1}, \"41\": {\"C\": 1}, \"42\": {\"C\": 1}, \"43\": {\"C\": 1}, \"44\": {\"C\": 1}, \"45\": {\"C\": 1}, \"46\": {\"C\": 1}, \"47\": {\"C\": 1}, \"48\": {\"C\": 1}, \"49\": {\"C\": 1}, \"50\": {\"C\": 1}, \"51\": {\"C\": 1}, \"52\": {\"N\": 1}, \"53\": {\"N\": 1}, \"54\": {\"N\": 1}, \"55\": {\"N\": 1}, \"56\": {\"N\": 1}, \"57\": {\"N\": 1}, \"58\": {\"N\": 1}, \"59\": {\"N\": 1}, \"60\": {\"O\": 1}, \"61\": {\"O\": 1}, \"62\": {\"O\": 1}, \"63\": {\"O\": 1}, \"64\": {\"O\": 1}, \"65\": {\"O\": 1}, \"66\": {\"O\": 1}, \"67\": {\"O\": 1}, \"68\": {\"O\": 1}, \"69\": {\"O\": 1}}" energy=-476.18463134765625 free_energy=-476.18463134765625 stress="0.0012202144134789705 0.0011714757420122623 -0.0010332942474633455 0.0011714757420122623 -0.0030624656938016415 0.00034743224387057126 -0.0010332942474633455 0.00034743224387057126 -0.0014201597077772021" pbc="T T T"
Zn       7.09215180       5.29271097       0.03387335        0       0.14471896      -0.07963748      -0.03313231
Zn      -2.73487584       3.23417421       8.83690170        1      -0.14194998       0.06922230      -0.05773562
H        1.40074500       3.58613284       4.97635456        2       0.13054046      -0.09374014       0.16727632
H        2.96066137       4.94659187       3.89031124        3      -0.17858192       0.07977349      -0.13985693
H        0.36895010       2.70546798       6.13638936        4       0.06639608      -0.20488337       0.03714649
H        3.98758439       5.82681773       2.72871426        5      -0.12341327       0.03405771      -0.01055171
H        0.74214899       5.51243317       4.03490506        6      -0.07137689       0.02640555       0.05485938
H        3.61273722       3.01573855       4.83118541        7       0.11339924      -0.00430889      -0.09471788
H       -1.13006871       7.05918408       3.45942296        8      -0.00704021       0.01534611       0.00390699
H        5.48751867       1.46771588       5.40349908        9      -0.00890791       0.00290322      -0.00987168
H        6.01990843       6.78631854       4.68439871       10      -0.19708245       0.14258553      -0.15595885
H       -1.66154111       1.74398058       4.18183506       11       0.07743631      -0.05362064       0.11659642
H        0.40857397       7.07164436       0.57250881       12      -0.02058871       0.00357178      -0.00138964
H        3.94649955       1.45163492       8.28846083       13      -0.12791905       0.13530640       0.06096971
H       -0.86141014       0.66351855       2.16962070       14       0.02185316      -0.03259808       0.00349808
H        5.21373685       7.86774225       6.69816805       15       0.07447025      -0.05212106      -0.05077121
H        1.63231942       1.38630328       1.71809224       16      -0.09152785      -0.02713978       0.04682782
H        2.72065063       7.14764697       7.14389245       17       0.13295178      -0.07684769      -0.05711103
H        2.71781868       0.17338896       1.00475453       18       0.02745195      -0.00892409      -0.06853867
H        1.63834742       8.34861207       7.86439489       19       0.04962873       0.05394033       0.00118507
H        1.04699843       1.28927572       4.10920030       20       0.00507618      -0.02809872       0.02389168
H        3.31648640       7.23927075       4.74868698       21      -0.09565286       0.13632266       0.00787479
H        1.74369817       0.62371184       6.42118540       22       0.00921239       0.03128100      -0.09642445
H        2.61535859       7.90703399       2.44452813       23       0.07927313      -0.11745881      -0.11037408
C        1.65303282       4.15225885       7.05421003       24      -0.28096259      -0.13110676      -0.37103912
C        2.69991090       4.37897699       1.81337479       25       0.46100265      -0.29781961       0.27038038
C        0.78400439       3.68783002       5.88712852       26       0.17332575      -0.00314939      -0.15999359
C        3.56972158       4.83852428       2.97674202       27       0.00103398       0.20215198       0.19862106
C       -0.20129526       5.50242334       4.58285305       28      -0.01542863      -0.30079311       0.12815191
C        4.55703834       3.03013199       4.28110100       29       0.00166153       0.04001120       0.08969945
C       -1.24581822       6.33639402       4.26195253       30      -0.16523524       0.22260681      -0.05125007
C        5.59988878       2.19275802       4.60209571       31       0.20728043      -0.18048716       0.04795751
C       -2.45080761       6.19836144       4.95566398       32       0.07533036      -0.13282792       0.14080717
C        6.80643495       2.33544788       3.90831326       33      -0.04725850      -0.23285210       0.16853943
C       -2.58996781       5.28526946       6.00606914       34       0.07714695       0.17491259      -0.20798522
C        6.94261463       3.23817625       2.86201948       35       0.06217641       0.19879252      -0.24164790
C       -1.46059402       4.47452533       6.37632576       36       0.14602301      -0.05385299      -0.05225854
C        5.81457180       4.05750136       2.48805561       37      -0.03942966      -0.05990076       0.07499650
C        5.41090737       5.18309507       6.66163118       38       0.38684550      -0.05848902      -0.01390839
C       -1.05398838       3.34157159       2.19949376       39      -0.28380346      -0.04058251       0.29094040
C       -0.49354535       7.60058915       0.86245334       40       0.04870790      -0.30692071      -0.10455433
C        4.84927871       0.93467004       8.00227683       41       0.24629465      -0.25397503      -0.17273386
C       -1.84348993       9.07909924       1.70485043       42      -0.08346602      -0.07789151       0.04057866
C        6.20339012      -0.54811820       7.16169547       43      -0.04093030      -0.03514094      -0.09607024
C        1.95197737       0.33980761       1.76933911       44      -0.06999858      -0.05797997      -0.16031078
C        2.40511976       8.19224490       7.09416760       45      -0.01001363       0.03621906       0.22574422
C        2.44307926      -0.02108931       3.14118477       46       0.13392043      -0.01112827      -0.33866313
C        1.91055122       8.55060346       5.72400799       47       0.05781424      -0.05955459       0.17959918
C        1.83013580       0.54561572       4.26639412       48      -0.16270161       0.13260064      -0.11590636
C        2.53115179       7.98819692       4.59839282       49       0.15142404      -0.20929019      -0.09616181
C        2.21563733       0.16778579       5.54472102       50       0.00720555      -0.01776442       0.26950705
C        2.14358780       8.36144923       3.31211214       51      -0.16571534       0.16741468       0.27140635
N       -0.31133680       4.58695489       5.58035116       52      -0.11136955       0.07177621       0.06031123
N        4.66830814       3.93859980       3.28587100       53      -0.00498077       0.24665515      -0.32728070
N        7.60566176       7.13482797       0.77638275       54      -0.13847929      -0.05351136      -0.01580795
N       -3.24601777       1.39324378       8.08459432       55      -0.07919693       0.24781734       0.14188002
N        6.73907300       8.06507318       1.31851234       56       0.34457350       0.08486661       0.00261831
N       -2.38458371       0.46657185       7.54755343       57      -0.10109177      -0.09879574      -0.03579542
N       -0.51875204       8.82990775       1.42414770       58      -0.15380424       0.42987323       0.27031347
N        4.88059930      -0.30541996       7.43659805       59      -0.05449897       0.06577671      -0.01900357
O        2.55964455       3.30740228       7.43544713       60      -0.08232415       0.16942346       0.11644147
O        1.79785361       5.21629496       1.42654385       61      -0.09044215       0.07364345      -0.11928073
O        1.50010843       5.28539990       7.56592772       62       0.13647392       0.04126054       0.21586701
O        2.85364517       3.24126903       1.30061396       63      -0.14675543       0.12392294      -0.11952610
O       -1.39121423       3.63033727       7.31991999       64      -0.24042249       0.04573902       0.11882004
O        5.74773686       4.90396376       1.54460355       65       0.21999450      -0.13527867       0.00022491
O        5.31196506       4.51195680       7.77906988       66       0.06977504      -0.13861071       0.21345580
O       -0.95622872       4.01647474       1.08500012       67      -0.03769970       0.05967882      -0.15397814
O        4.43577081       5.77451004       6.14674804       68      -0.12640622       0.15941310      -0.02067596
O       -0.07453667       2.75273297       2.72227689       69      -0.14396292       0.00181006      -0.18062934
70
Lattice="9.33638899 0.0 0.0 -1.3156882000103751 9.33730928905279 0.0 -3.6641907771254836 -0.808543864661197 8.864673695697958" Properties=species:S:1:pos:R:3:spacegroup_kinds:I:1:forces:R:3 spacegroup="P 1" unit_cell=conventional occupancy="_JSON {\"0\": {\"Zn\": 1}, \"1\": {\"Zn\": 1}, \"2\": {\"H\": 1}, \"3\": {\"H\": 1}, \"4\": {\"H\": 1}, \"5\": {\"H\": 1}, \"6\": {\"H\": 1}, \"7\": {\"H\": 1}, \"8\": {\"H\": 1}, \"9\": {\"H\": 1}, \"10\": {\"H\": 1}, \"11\": {\"H\": 1}, \"12\": {\"H\": 1}, \"13\": {\"H\": 1}, \"14\": {\"H\": 1}, \"15\": {\"H\": 1}, \"16\": {\"H\": 1}, \"17\": {\"H\": 1}, \"18\": {\"H\": 1}, \"19\": {\"H\": 1}, \"20\": {\"H\": 1}, \"21\": {\"H\": 1}, \"22\": {\"H\": 1}, \"23\": {\"H\": 1}, \"24\": {\"C\": 1}, \"25\": {\"C\": 1}, \"26\": {\"C\": 1}, \"27\": {\"C\": 1}, \"28\": {\"C\": 1}, \"29\": {\"C\": 1}, \"30\": {\"C\": 1}, \"31\": {\"C\": 1}, \"32\": {\"C\": 1}, \"33\": {\"C\": 1}, \"34\": {\"C\": 1}, \"35\": {\"C\": 1}, \"36\": {\"C\": 1}, \"37\": {\"C\": 1}, \"38\": {\"C\": 1}, \"39\": {\"C\": 1}, \"40\": {\"C\": 1}, \"41\": {\"C\": 1}, \"42\": {\"C\": 1}, \"43\": {\"C\": 1}, \"44\": {\"C\": 1}, \"45\": {\"C\": 1}, \"46\": {\"C\": 1}, \"47\": {\"C\": 1}, \"48\": {\"C\": 1}, \"49\": {\"C\": 1}, \"50\": {\"C\": 1}, \"51\": {\"C\": 1}, \"52\": {\"N\": 1}, \"53\": {\"N\": 1}, \"54\": {\"N\": 1}, \"55\": {\"N\": 1}, \"56\": {\"N\": 1}, \"57\": {\"N\": 1}, \"58\": {\"N\": 1}, \"59\": {\"N\": 1}, \"60\": {\"O\": 1}, \"61\": {\"O\": 1}, \"62\": {\"O\": 1}, \"63\": {\"O\": 1}, \"64\": {\"O\": 1}, \"65\": {\"O\": 1}, \"66\": {\"O\": 1}, \"67\": {\"O\": 1}, \"68\": {\"O\": 1}, \"69\": {\"O\": 1}}" energy=-476.1971740722656 free_energy=-476.1971740722656 stress="0.0011714306892827153 0.000872286967933178 -0.0010765109909698367 0.000872286967933178 -0.0021538930013775826 0.0002445097197778523 -0.0010765109909698367 0.0002445097197778523 -0.0008668662630952895" pbc="T T T"
Zn       7.09006827       5.29484337       0.03508801        0       0.15913886      -0.09575417      -0.04354225
Zn      -2.73460140       3.23549674       8.83707430        1      -0.17568353       0.05245392      -0.05297238
H        1.40296911       3.58590101       4.97684477        2       0.10366509      -0.08225780       0.19971581
H        2.95803977       4.94858869       3.88948747        3      -0.19610299       0.07400241      -0.07967661
H        0.37164587       2.70352192       6.13504634        4       0.06825005      -0.17799412       0.04731631
H        3.98902224       5.82559134       2.72902860        5      -0.13852505       0.05689241      -0.00607473
H        0.73991108       5.51513696       4.03755179        6      -0.01467155       0.02252220       0.03380334
H        3.61437924       3.01343453       4.82830915        7       0.03891596      -0.00555938      -0.03470120
H       -1.12859966       7.06052484       3.45890845        8      -0.02163321      -0.01536205       0.03628333
H        5.48867425       1.46867984       5.40297900        9      -0.01327663      -0.04619665       0.04638726
H        6.01821982       6.78613399       4.68159625       10      -0.14736059       0.09320840      -0.13274257
H       -1.66189365       1.74448271       4.18326345       11       0.18267772      -0.13271257       0.15496697
H        0.41046289       7.06976266       0.57066907       12      -0.08973232       0.03666958       0.02190433
H        3.94544237       1.45452710       8.29083971       13       0.04869582       0.02319014      -0.00651923
H       -0.86262246       0.66331155       2.17142457       14       0.02147017       0.00774962       0.01610431
H        5.21412769       7.86887751       6.69990359       15       0.10802504      -0.14444536      -0.09186248
H        1.63191203       1.38681152       1.71973156       16      -0.06585146      -0.09780527       0.05619502
H        2.72030125       7.14629549       7.14199837       17       0.14346899      -0.10354134      -0.03065311
H        2.72048709       0.17346224       1.00507389       18      -0.04945757       0.00069240      -0.01105983
H        1.63930999       8.34983203       7.86504181       19       0.03251888       0.04012648       0.01765457
H        1.04883732       1.29022943       4.11190543       20      -0.01177229      -0.00890380       0.00039880
H        3.31574255       7.24048377       4.74967641       21      -0.05088292       0.08819572       0.00159315
H        1.74457323       0.62304803       6.41831898       22      -0.03956556       0.07720858       0.01114886
H        2.61798112       7.90506457       2.44408162       23       0.05163944      -0.09829691      -0.07591818
C        1.65270746       4.15286273       7.05215094       24      -0.14393476      -0.01903434      -0.11796111
C        2.70195443       4.38095898       1.81383794       25       0.32042450      -0.39436573       0.16258085
C        0.78695225       3.68752836       5.88994632       26       0.04744967       0.05222577      -0.29242641
C        3.56767010       4.83958736       2.97928857       27       0.10257354       0.19433570       0.06700960
C       -0.20155262       5.50447153       4.58521972       28      -0.07099117      -0.29963002       0.15392257
C        4.55831656       3.02908746       4.28391383       29       0.11263069       0.17474231      -0.15054472
C       -1.24641704       6.33723707       4.26258460       30      -0.13383533       0.25013661      -0.10538803
C        5.60200883       2.19197437       4.60300370       31       0.15390308      -0.12677862       0.02281839
C       -2.45128640       6.19683273       4.95420550       32       0.01657208      -0.08829615       0.17531571
C        6.80861326       2.33265636       3.91072437       33      -0.11074096      -0.04814149      -0.00562619
C       -2.58792908       5.28662447       6.00880388       34       0.05653712       0.19160695      -0.25881925
C        6.94478942       3.23663390       2.86070221       35      -0.07257676       0.13974571      -0.05685877
C       -1.45870243       4.47472111       6.37922238       36       0.04923482       0.04409099      -0.09861426
C        5.81496176       4.05623843       2.48941726       37       0.00096929      -0.01545854      -0.02757409
C        5.41284211       5.18455894       6.66065021       38       0.28130746      -0.13826896       0.13672760
C       -1.05437031       3.34365463       2.20214298       39      -0.34848839       0.04158701       0.07243201
C       -0.49363059       7.59922948       0.86188088       40       0.03166994      -0.24162006      -0.07118826
C        4.85157080       0.93297540       7.99985555       41       0.05148378      -0.03138677      -0.03800523
C       -1.84251650       9.08159717       1.70567490       42      -0.06916758      -0.18491760      -0.00868167
C        6.20500635      -0.55005970       7.16336532       43      -0.15384586      -0.00587399      -0.10395573
C        1.95058011       0.33713363       1.77112486       44       0.06731521       0.09452681      -0.29782519
C        2.40483408       8.18993335       7.09560955       45       0.03430182       0.10232449       0.19347905
C        2.44583895      -0.02189099       3.13872213       46       0.02894289       0.05205814      -0.16922906
C        1.91206949       8.54879741       5.72532201       47      -0.01466313      -0.00842128       0.12398943
C        1.83191508       0.54728252       4.26617317       48      -0.07351562       0.03156026      -0.09893891
C        2.53103483       7.98683657       4.59775237       49       0.10796624      -0.15257755      -0.03674048
C        2.21597616       0.16765623       5.54620736       50       0.09509993      -0.08355288       0.08759625
C        2.14357865       8.36049264       3.31160380       51      -0.09809251       0.11858205       0.22705001
N       -0.31283340       4.58958575       5.58263779       52       0.06803291      -0.05674171       0.07950500
N        4.66860849       3.94080520       3.28309010       53      -0.05016623       0.03087699      -0.04482731
N        7.60351768       7.13406627       0.77718849       54      -0.03233913       0.06219784       0.01220074
N       -3.24342769       1.39388257       8.08318988       55      -0.14382043       0.17567410       0.10156387
N        6.73889896       8.06711807       1.31937642       56       0.37950826       0.10426259       0.01485949
N       -2.38589304       0.46480215       7.54470877       57       0.05197892      -0.00992271       0.01268341
N       -0.51672309       8.83262323       1.42384237       58      -0.29416484       0.21592659       0.20836565
N        4.88142961      -0.30573156       7.43727088       59      -0.06682974      -0.03099594      -0.04888543
O        2.56077416       3.30867059       7.43815306       60      -0.17170444       0.20747256       0.03948203
O        1.79533129       5.21399256       1.42493368       61      -0.01761138       0.11192739      -0.05693612
O        1.50247049       5.28800996       7.56884242       62       0.12519367      -0.12503865       0.09280089
O        2.85154450       3.24208809       1.29805519       63      -0.08869575       0.19957191      -0.04522257
O       -1.39340890       3.63204973       7.32230119       64      -0.18023521      -0.01083757       0.14730364
O        5.75012190       4.90161494       1.54354295       65       0.19380200      -0.14543241       0.04348954
O        5.30951921       4.50946202       7.78096922       66       0.10035282      -0.01484810       0.02462259
O       -0.95734651       4.01884199       1.08508224       67      -0.03755043       0.02969433      -0.08587736
O        4.43706624       5.77584848       6.14443081       68      -0.06293723       0.12164186       0.01895902
O       -0.07690788       2.75439416       2.72041659       69       0.01470688      -0.07871073      -0.07638052
70