82
Lattice="7.02074917 0.0 0.0 -0.4805198548906271 9.579128652850702 0.0 -2.6423890267052768 -1.1822599636282618 16.44802119474933" Properties=species:S:1:pos:R:3:spacegroup_kinds:I:1:forces:R:3 spacegroup="P 1" unit_cell=conventional occupancy="_JSON {\"0\": {\"Zn\": 1}, \"1\": {\"Zn\": 1}, \"2\": {\"H\": 1}, \"3\": {\"H\": 1}, \"4\": {\"H\": 1}, \"5\": {\"H\": 1}, \"6\": {\"H\": 1}, \"7\": {\"H\": 1}, \"8\": {\"H\": 1}, \"9\": {\"H\": 1}, \"10\": {\"H\": 1}, \"11\": {\"H\": 1}, \"12\": {\"H\": 1}, \"13\": {\"H\": 1}, \"14\": {\"H\": 1}, \"15\": {\"H\": 1}, \"16\": {\"H\": 1}, \"17\": {\"H\": 1}, \"18\": {\"H\": 1}, \"19\": {\"H\": 1}, \"20\": {\"H\": 1}, \"21\": {\"H\": 1}, \"22\": {\"H\": 1}, \"23\": {\"H\": 1}, \"24\": {\"H\": 1}, \"25\": {\"H\": 1}, \"26\": {\"H\": 1}, \"27\": {\"H\": 1}, \"28\": {\"H\": 1}, \"29\": {\"H\": 1}, \"30\": {\"H\": 1}, \"31\": {\"H\": 1}, \"32\": {\"H\": 1}, \"33\": {\"H\": 1}, \"34\": {\"H\": 1}, \"35\": {\"H\": 1}, \"36\": {\"H\": 1}, \"37\": {\"H\": 1}, \"38\": {\"C\": 1}, \"39\": {\"C\": 1}, \"40\": {\"C\": 1}, \"41\": {\"C\": 1}, \"42\": {\"C\": 1}, \"43\": {\"C\": 1}, \"44\": {\"C\": 1}, \"45\": {\"C\": 1}, \"46\": {\"C\": 1}, \"47\": {\"C\": 1}, \"48\": {\"C\": 1}, \"49\": {\"C\": 1}, \"50\": {\"C\": 1}, \"51\": {\"C\": 1}, \"52\": {\"C\": 1}, \"53\": {\"C\": 1}, \"54\": {\"C\": 1}, \"55\": {\"C\": 1}, \"56\": {\"C\": 1}, \"57\": {\"C\": 1}, \"58\": {\"C\": 1}, \"59\": {\"C\": 1}, \"60\": {\"C\": 1}, \"61\": {\"C\": 1}, \"62\": {\"C\": 1}, \"63\": {\"C\": 1}, \"64\": {\"C\": 1}, \"65\": {\"C\": 1}, \"66\": {\"S\": 1}, \"67\": {\"S\": 1}, \"68\": {\"S\": 1}, \"69\": {\"S\": 1}, \"70\": {\"S\": 1}, \"71\": {\"S\": 1}, \"72\": {\"S\": 1}, \"73\": {\"S\": 1}, \"74\": {\"N\": 1}, \"75\": {\"N\": 1}, \"76\": {\"N\": 1}, \"77\": {\"N\": 1}, \"78\": {\"O\": 1}, \"79\": {\"O\": 1}, \"80\": {\"O\": 1}, \"81\": {\"O\": 1}}" energy=-485.8641052246094 free_energy=-485.8641052246094 stress="-0.0018568970263004303 -0.0019829298835247755 -0.0006273273029364645 -0.0019829298835247755 -0.00450893584638834 0.0016382155008614063 -0.0006273273029364645 0.0016382155008614063 -0.00020598813716787845" pbc="T T T"
Zn       2.99712325       7.30083945       4.03291288        0       0.02228413       0.36483318      -0.07706258
Zn       0.94995899       1.05926873      12.36074600        1      -0.03270206      -0.47712195       0.10779130
H        3.01104815       4.17816635       8.05124074        2       0.13826382      -0.16656606       0.10106746
H        0.93864487       4.22823953       8.36030887        3      -0.03450866      -0.03688341       0.01315633
H       -0.20501402       5.55689491       6.63038347        4       0.15876241       0.02282335      -0.00576623
H        4.14974696       2.82220811       9.77470269        5       0.01950914       0.09465918      -0.16369811
H        5.72519368       6.41009363       1.56459787        6       0.16632044      -0.46978167      -0.48120782
H       -1.80565301       2.00410617      14.84489790        7      -0.03189503       0.00579482       0.22622913
H        2.17574794       4.30969535       0.15878455        8       1.19078851      -0.37310612      -0.09268445
H        1.74831200       4.11662598      16.24813487        9      -0.17478161       0.01747510      -0.02425927
H        0.61363041       8.13714698       5.75177275       10       0.45083165       0.54524195       0.03703937
H        3.32677511       0.23006362      10.67020318       11      -0.31063625      -0.14859834      -0.04904674
H        3.21374590       1.34331536       6.63947684       12      -0.25772485      -0.03972131      -0.02871261
H        0.72611132       7.01852238       9.83314171       13      -0.94051456       0.29182953       0.29812723
H        2.31072953       1.59850346       8.18984120       14      -0.15320919      -0.17110136      -1.01017952
H        1.58313360       6.79020283       8.26680708       15      -0.11741032       0.11921918      -0.40146536
H        1.77676154       2.41687172       6.68368514       16      -0.06954716      -0.46846223      -0.05692240
H        2.14061197       6.00042915       9.74639020       17      -0.11805037       0.34772801      -0.17819311
H       -0.48907295       1.10350061       7.23766127       18       0.02226889      -0.02551341      -0.02765261
H        4.42538310       7.29412884       9.17151733       19      -0.17053390       0.31883699      -0.10431808
H       -0.88448191       8.92547456       7.09745025       20      -0.59519351      -1.01551712      -0.43411028
H        4.82875870      -0.48967538       9.35965230       21      -0.10811691      -0.15485519      -0.09012589
H        0.23035852       0.15751514       8.53959406       22       0.08541984      -0.07503715       0.18685314
H        3.65586346       8.27137308       7.87542759       23       0.11704381       0.05074337       0.30286157
H        2.85959397       0.37613820       2.65234037       24      -0.02411370      -0.27173775       0.11804753
H        1.08561882       8.00995090      13.74679971       25      -0.57019192       0.10441203       0.33193359
H        4.12161553       3.03335515       1.21737440       26       0.37405807       0.03395973      -0.08577214
H       -0.24408148       5.38459477      15.18550327       27      -0.47101766      -0.88958377      -0.04649941
H        2.65596030       2.16776444       1.53059890       28       0.17419259      -0.09784910      -0.44150063
H        1.27420969       6.22141509      14.89943308       29       0.25085819       0.01505159      -0.19098575
H        0.78499246       0.90368999      16.32448354       30      -0.01159102      -0.06140824       0.11836384
H        3.17028211       7.49111795       0.07137536       31      -0.02735664      -0.21652710       0.02809685
H        6.32090505       1.58521656       1.12280487       32       0.01376741      -0.06755825      -0.10469165
H       -2.39502453       6.83648693      15.33497131       33      -0.15491870      -0.24795705      -0.18403472
H        2.95432173      -0.43291785      16.13877696       34       0.02399342       0.02201725       0.37018099
H        0.92978152       8.81319017       0.28680045       35       0.23122276       0.14097986      -0.37674707
H        5.60802543       9.38455084       1.17006377       36      -0.02366801      -0.10365810       0.01420195
H       -1.68090881      -1.01108052      15.26306129       37      -0.35569909       1.09082198      -0.35270655
C        4.14909732       5.76804245       6.18186149       38       0.22697577      -0.20082790       0.47064662
C       -0.19404175       2.57633161      10.21662789       39      -0.49528319       0.96877503      -0.84317493
C        4.81619638       4.98357499       7.21139321       40       0.41065910      -0.42815831      -0.12475192
C       -0.88440600       3.40959012       9.18970361       41       0.68322217      -0.61663830       0.88483477
C        4.09989767       4.14629185       8.10249402       42      -0.61664534       0.83958048      -0.41927749
C       -0.14609545       4.21092934       8.31698382       43      -0.09301380       0.54954261      -1.01575637
C       -0.78709824       4.95858584       7.32377681       44      -0.11381128       0.07524899       0.36198807
C        4.73424070       3.42136288       9.06964755       45      -0.12207854      -0.79180425       0.66891301
C        1.38185581       6.04743963       2.02929152       46      -0.88552523      -0.41984370      -0.99166286
C        2.56505444       2.33248386      14.38538426       47       0.31026155      -0.06312070       0.27729729
C        0.55233501       5.39590246       0.98569459       48       0.34308797       0.23442310       0.50155503
C        3.37315446       2.97419849      15.41000915       49      -0.10881756      -0.02570552       0.07779927
C        6.18863852       5.68774666       0.86039999       50       0.23162688       0.43052837       0.31609988
C       -2.27708192       2.67568265      15.57077872       51       0.39562809      -0.45010272      -0.80366641
C        1.14009317       4.46903031       0.07993119       52      -1.50778842       0.71301264       0.60334319
C        2.80523215       3.89906409      16.31028678       53      -0.15247823       0.16316669       0.12150163
C        1.34176717       8.98724085       5.87573058       54      -0.71821189      -0.84676188       0.10958812
C        2.59311235      -0.59297486      10.52320964       55       0.48774540       0.54727799       0.50728822
C        2.20405232       1.46158535       7.06214218       56       1.20714247       1.27899766       1.39477015
C        1.66441378       6.92745930       9.34172763       57       1.24220836      -0.83466727       0.35008013
C        0.10677884       0.20187484       7.45319210       58       1.17135954       1.19798672      -0.04567055
C        3.81945094       8.20575307       8.97173035       59      -0.81401265      -0.59286302       0.17443034
C        3.85351378       0.08205661       2.27201251       60      -1.71999347       0.62166917       0.80717874
C        0.07805327       8.28202841      14.16026982       61       1.13130200       1.20731115      -1.78253794
C        3.61151208       2.09878466       0.96441941       62      -1.35480571       0.55529594       0.40379566
C        0.33468354       6.24446480      15.43953301       63      -0.34118688       1.94760418       0.14557803
C        5.68461173       0.74560183       0.79744571       64      -1.17808187       0.36527741       0.35674801
C       -1.73967235       7.66467111      15.62153019       65       0.22727245      -1.01063883       0.74092746
S        5.04812163       6.88353124       5.27262572       66      -0.23122190       0.19399196      -0.19484715
S       -1.10709726       1.49566575      11.13154174       67       0.21045822      -0.36877537       0.25167787
S        2.49190422       5.57876529       5.88052539       68      -0.04637569       0.22037095      -0.16164958
S        1.46079102       2.80648052      10.52147052       69      -0.11880243      -0.34875196       0.15421481
S        0.78778561       7.40551030       2.83548949       70       0.20148018       0.03733450       0.16724655
S        3.13443764       0.96067670      13.56342803       71      -0.06771740       0.12104522       0.00026660
S        2.90709804       5.43428147       2.39681154       72       0.35063598       0.02993305       0.24504235
S        1.02299775       2.90949033      13.99386364       73      -0.22447328       0.10062278      -0.07934394
N        1.42299977       0.31249804       6.78369313       74      -1.07887995      -0.53085929      -0.28316081
N        2.50196660       8.06699598       9.66532256       75       1.27959514      -0.23832116      -1.10417151
N        4.31116839       0.95030235       1.41792108       76       2.99198890       0.37145203      -1.93527472
N       -0.43128467       7.46813739      15.02801234       77       0.12518984      -2.24052238       1.51891673
O        2.43728520       9.01420573       5.25779033       78       0.03418028       0.04570620       0.04042225
O        1.51393569      -0.66343165      11.15755802       79      -0.63014114       0.44129637       0.38132626
O        3.96704797       8.64902738       2.65432891       80       0.69985354      -1.59174442       0.61321050
O       -0.02680423      -0.25658772      13.74668431       81      -0.02873237       0.33477470      -0.10734825
82
Lattice="7.02074917 0.0 0.0 -0.4805198548906271 9.579128652850702 0.0 -2.6423890267052768 -1.1822599636282618 16.44802119474933" Properties=species:S:1:pos:R:3:spacegroup_kinds:I:1:forces:R:3 spacegroup="P 1" unit_cell=conventional occupancy="_JSON {\"0\": {\"Zn\": 1}, \"1\": {\"Zn\": 1}, \"2\": {\"H\": 1}, \"3\": {\"H\": 1}, \"4\": {\"H\": 1}, \"5\": {\"H\": 1}, \"6\": {\"H\": 1}, \"7\": {\"H\": 1}, \"8\": {\"H\": 1}, \"9\": {\"H\": 1}, \"10\": {\"H\": 1}, \"11\": {\"H\": 1}, \"12\": {\"H\": 1}, \"13\": {\"H\": 1}, \"14\": {\"H\": 1}, \"15\": {\"H\": 1}, \"16\": {\"H\": 1}, \"17\": {\"H\": 1}, \"18\": {\"H\": 1}, \"19\": {\"H\": 1}, \"20\": {\"H\": 1}, \"21\": {\"H\": 1}, \"22\": {\"H\": 1}, \"23\": {\"H\": 1}, \"24\": {\"H\": 1}, \"25\": {\"H\": 1}, \"26\": {\"H\": 1}, \"27\": {\"H\": 1}, \"28\": {\"H\": 1}, \"29\": {\"H\": 1}, \"30\": {\"H\": 1}, \"31\": {\"H\": 1}, \"32\": {\"H\": 1}, \"33\": {\"H\": 1}, \"34\": {\"H\": 1}, \"35\": {\"H\": 1}, \"36\": {\"H\": 1}, \"37\": {\"H\": 1}, \"38\": {\"C\": 1}, \"39\": {\"C\": 1}, \"40\": {\"C\": 1}, \"41\": {\"C\": 1}, \"42\": {\"C\": 1}, \"43\": {\"C\": 1}, \"44\": {\"C\": 1}, \"45\": {\"C\": 1}, \"46\": {\"C\": 1}, \"47\": {\"C\": 1}, \"48\": {\"C\": 1}, \"49\": {\"C\": 1}, \"50\": {\"C\": 1}, \"51\": {\"C\": 1}, \"52\": {\"C\": 1}, \"53\": {\"C\": 1}, \"54\": {\"C\": 1}, \"55\": {\"C\": 1}, \"56\": {\"C\": 1}, \"57\": {\"C\": 1}, \"58\": {\"C\": 1}, \"59\": {\"C\": 1}, \"60\": {\"C\": 1}, \"61\": {\"C\": 1}, \"62\": {\"C\": 1}, \"63\": {\"C\": 1}, \"64\": {\"C\": 1}, \"65\": {\"C\": 1}, \"66\": {\"S\": 1}, \"67\": {\"S\": 1}, \"68\": {\"S\": 1}, \"69\": {\"S\": 1}, \"70\": {\"S\": 1}, \"71\": {\"S\": 1}, \"72\": {\"S\": 1}, \"73\": {\"S\": 1}, \"74\": {\"N\": 1}, \"75\": {\"N\": 1}, \"76\": {\"N\": 1}, \"77\": {\"N\": 1}, \"78\": {\"O\": 1}, \"79\": {\"O\": 1}, \"80\": {\"O\": 1}, \"81\": {\"O\": 1}}" energy=-485.5872497558594 free_energy=-485.5872497558594 stress="-0.001884192693978548 -0.001753982505761087 0.00043130587437190115 -0.001753982505761087 -0.00402081711217761 0.0007100935908965766 0.00043130587437190115 0.0007100935908965766 -0.0017365188105031848" pbc="T T T"
Zn       3.00506905       7.29330195       4.00363239        0       0.11884405       0.35346186      -0.12302797
Zn       0.97959689       1.03222612      12.33146995        1      -0.08826764      -0.43145937       0.12214971
H        3.03695525       4.15251268       8.03487081        2       0.13701543      -0.18817469       0.05166491
H        0.96497647       4.20189892       8.33450281        3       0.05627216      -0.02378253      -0.04248284
H       -0.17703599       5.52837833       6.60377389        4       0.12782070      -0.08037533       0.11612552
H        4.17552405       2.79948618       9.74504944        5      -0.22606306      -0.03451596       0.04322615
H        5.74860201       6.39150443       1.53960189        6       0.13726205      -0.42044261      -0.45997167
H       -1.78145490       2.02144238      14.85624488        7       0.69700587      -1.26315498      -1.15477729
H        2.19856161       4.29478853       0.12996032        8       1.16116047      -0.40663028      -0.07910942
H        1.77620614       4.10026227      16.25810532        9      -0.19679558      -0.08178462      -0.17170426
H        0.63878304       8.11087451       5.72699980       10       0.56291980       0.76071155       0.08031186
H        3.35397450       0.23472947      10.64236413       11      -0.73213094      -0.66026258      -0.02440713
H        3.24329171       1.32612190       6.61582718       12      -0.60968059       0.11106700       0.08823510
H        0.75155294       7.03984187       9.80457640       13      -0.99898517       0.25768596       0.39251059
H        2.33697164       1.59495529       8.16040317       14      -0.11244699       0.00250931      -0.81951785
H        1.61077544       6.78165843       8.27155771       15      -0.13687146       0.10793704      -0.96787828
H        1.79679606       2.40090880       6.66057049       16      -0.32977861       0.10171555      -0.30558288
H        2.16734337       5.97206593       9.72927496       17      -0.40081316       1.09018469      -0.30525103
H       -0.47452010       1.08854615       7.21582424       18       0.22565782      -0.29517704      -0.00851582
H        4.45391515       7.27848577       9.14320838       19      -0.08387712       0.00501053       0.07794160
H       -0.85830494       8.89885618       7.07440119       20      -0.49082428      -0.92302632      -0.45350745
H        4.84247723      -0.51462188       9.33053202       21       0.18107532       0.14937700       0.13551225
H        0.24072497       0.13580133       8.52654616       22       0.02466457      -0.06046706      -0.16015071
H        3.68235357       8.26706508       7.85000109       23       0.19884300      -0.07493291       0.86635220
H        2.88921653       0.34859795       2.65708811       24       0.09987198      -0.07347228      -0.06063697
H        1.11478060       7.98124628      13.72360783       25      -0.60744596       0.10789573       0.33498138
H        4.13633204       3.00881489       1.21320574       26       0.29398960      -0.07734475      -0.16897014
H       -0.22083448       5.35941553      15.15722776       27      -0.51747322      -0.89267224       0.03045246
H        2.68412926       2.13909801       1.50220916       28      -0.12388404      -0.13249783      -0.29163128
H        1.29953812       6.19187554      14.87378965       29      -0.17200488       0.03260922       0.10871195
H        0.80940481       0.89560628      16.29651933       30       0.01190007      -0.09352169       0.23109385
H        3.19798925       7.46488411       0.04823877       31      -0.00909558      -0.21540320       0.47243288
H        6.33843734       1.56995412       1.09791824       32       0.18867530       0.21590021      -0.02324059
H       -2.36597220       6.80698850      15.30567575       33      -0.01063844       0.14221404       0.00522478
H        2.98141693      -0.44813637      16.11012218       34       0.01456113       0.06452414       0.39566234
H        0.94674474       8.83742118       0.26608284       35       0.22138639      -0.03409325      -0.47856557
H        5.63632169       9.36984240       1.14828219       36      -0.14276862       0.22887507      -0.12735927
H       -1.65192466      -1.02795384      15.26179207       37      -0.71174443       1.81665468      -0.82138604
C        4.17782916       5.76068375       6.15487411       38       0.09738827      -0.03193834       0.42026433
C       -0.17772087       2.55182156      10.18912793       39      -0.14956278       0.86929280      -0.57008886
C        4.83852020       4.99872524       7.18214728       40       0.38609248      -1.60949659       0.71887481
C       -0.85799941       3.38233757       9.19042408       41       0.50424272       0.14366736      -0.09433624
C        4.12673035       4.11769169       8.07417512       42      -0.52277410       1.50436115      -0.71196985
C       -0.11680431       4.18869861       8.28866847       43      -0.54147112      -0.00793873      -0.27751678
C       -0.76164374       4.93101104       7.30516500       44      -0.13582855       0.60464883      -0.08615737
C        4.75066477       3.40883583       9.05674240       45       0.53183973      -0.77750289       0.42861533
C        1.40567603       6.02221778       2.00017386       46      -0.82938385      -0.04365358      -0.77592671
C        2.59301887       2.31209256      14.35875190       47       0.26363656       0.34001550       0.48679632
C        0.58085916       5.38870121       0.95770265       48       0.11831295      -0.01287815       0.24775669
C        3.40244111       2.99678664      15.38280027       49       0.19351861      -1.61824572      -0.98228717
C        6.21665011       5.68001052       0.83121585       50       0.36061591       0.20155410       0.26478586
C       -2.24984976       2.64769285      15.54353348       51      -0.60606837       1.23067832       0.58839375
C        1.16047769       4.44587576       0.05014090       52      -1.31639481       0.87457955       0.82716179
C        2.83287194       3.87341120      16.28126725       53      -0.40496129       1.19559264       0.97971237
C        1.37136719       8.96887291       5.84807741       54      -1.26865458      -0.49884647       0.89644319
C        2.61404939      -0.61953989      10.50717655       55       1.45026183       1.99529672       0.65048611
C        2.22319271       1.47375477       7.03992894       56       1.61348009       0.03661864       1.38987732
C        1.69257742       6.93918074       9.32788417       57       1.50110471      -1.63381994       0.81671065
C        0.13556728       0.17962946       7.42507935       58       0.76438564       1.42247725       0.54951650
C        3.84728133       8.17918385       8.96845825       59      -1.09734964      -0.15019082      -0.93594581
C        3.88209740       0.08696364       2.24405280       60      -1.42486989      -1.21200848       1.82535124
C        0.10601767       8.25348758      14.13707020       61       1.08292663       1.34325564      -1.79968882
C        3.62862872       2.07154375       0.94107677       62      -0.98521155       0.90439332       0.17588767
C        0.35161727       6.21586666      15.43373884       63       0.07585075       2.05052352      -0.76659799
C        5.70831869       0.74132659       0.76995133       64      -1.06581712      -0.42402434       0.35123640
C       -1.72196082       7.65976997      15.59646341       65       0.57983285      -2.09178114       1.08985436
S        5.07125493       6.87557595       5.25298988       66      -0.07998216       0.34899867      -0.36031836
S       -1.07976709       1.46639625      11.10284250       67       0.13207668      -0.46820986       0.34262091
S        2.51819181       5.59129136       5.85113878       68      -0.11931646       0.13118641      -0.11822411
S        1.48704381       2.78074581      10.49449099       69      -0.22238235      -0.37680554       0.14099407
S        0.81327914       7.39138480       2.81326513       70       0.22194825      -0.14978176       0.04900385
S        3.14520938       0.93403940      13.54104829       71       0.05312727       0.15948209       0.08902502
S        2.93531687       5.42640138       2.36952807       72       0.36013609      -0.05132351       0.22238171
S        1.04634641       2.88809371      13.97294814       73      -0.17464313       0.06016310      -0.09119014
N        1.45162141       0.29746942       6.79248763       74      -0.49531698      -0.90419716      -1.33362412
N        2.52850891       8.07802419       9.63829626       75       1.30733776      -1.31691551      -1.44160390
N        4.33944611       0.92848424       1.38824360       76       2.87142015       0.93427002      -2.27794552
N       -0.40508683       7.44965088      15.01131773       77       0.01993801      -2.25077915       1.66387844
O        2.46233336       8.98931402       5.23564746       78       0.17625298       0.20805845       0.00140415
O        1.54263677      -0.68914804      11.13045391       79      -1.25628591       0.34324083       0.79738432
O        3.99564678       8.62650023       2.62858753       80       0.19638434      -0.59124029       0.22943002
O       -0.00174307      -0.28241028      13.72550922       81       0.07682765       0.23408031      -0.12534153
82
Lattice="7.02074917 0.0 0.0 -0.4805198548906271 9.579128652850702 0.0 -2.6423890267052768 -1.1822599636282618 16.44802119474933" Properties=species:S:1:pos:R:3:spacegroup_kinds:I:1:forces:R:3 spacegroup="P 1" unit_cell=conventional occupancy="_JSON {\"0\": {\"Zn\": 1}, \"1\": {\"Zn\": 1}, \"2\": {\"H\": 1}, \"3\": {\"H\": 1}, \"4\": {\"H\": 1}, \"5\": {\"H\": 1}, \"6\": {\"H\": 1}, \"7\": {\"H\": 1}, \"8\": {\"H\": 1}, \"9\": {\"H\": 1}, \"10\": {\"H\": 1}, \"11\": {\"H\": 1}, \"12\": {\"H\": 1}, \"13\": {\"H\": 1}, \"14\": {\"H\": 1}, \"15\": {\"H\": 1}, \"16\": {\"H\": 1}, \"17\": {\"H\": 1}, \"18\": {\"H\": 1}, \"19\": {\"H\": 1}, \"20\": {\"H\": 1}, \"21\": {\"H\": 1}, \"22\": {\"H\": 1}, \"23\": {\"H\": 1}, \"24\": {\"H\": 1}, \"25\": {\"H\": 1}, \"26\": {\"H\": 1}, \"27\": {\"H\": 1}, \"28\": {\"H\": 1}, \"29\": {\"H\": 1}, \"30\": {\"H\": 1}, \"31\": {\"H\": 1}, \"32\": {\"H\": 1}, \"33\": {\"H\": 1}, \"34\": {\"H\": 1}, \"35\": {\"H\": 1}, \"36\": {\"H\": 1}, \"37\": {\"H\": 1}, \"38\": {\"C\": 1}, \"39\": {\"C\": 1}, \"40\": {\"C\": 1}, \"41\": {\"C\": 1}, \"42\": {\"C\": 1}, \"43\": {\"C\": 1}, \"44\": {\"C\": 1}, \"45\": {\"C\": 1}, \"46\": {\"C\": 1}, \"47\": {\"C\": 1}, \"48\": {\"C\": 1}, \"49\": {\"C\": 1}, \"50\": {\"C\": 1}, \"51\": {\"C\": 1}, \"52\": {\"C\": 1}, \"53\": {\"C\": 1}, \"54\": {\"C\": 1}, \"55\": {\"C\": 1}, \"56\": {\"C\": 1}, \"57\": {\"C\": 1}, \"58\": {\"C\": 1}, \"59\": {\"C\": 1}, \"60\": {\"C\": 1}, \"61\": {\"C\": 1}, \"62\": {\"C\": 1}, \"63\": {\"C\": 1}, \"64\": {\"C\": 1}, \"65\": {\"C\": 1}, \"66\": {\"S\": 1}, \"67\": {\"S\": 1}, \"68\": {\"S\": 1}, \"69\": {\"S\": 1}, \"70\": {\"S\": 1}, \"71\": {\"S\": 1}, \"72\": {\"S\": 1}, \"73\": {\"S\": 1}, \"74\": {\"N\": 1}, \"75\": {\"N\": 1}, \"76\": {\"N\": 1}, \"77\": {\"N\": 1}, \"78\": {\"O\": 1}, \"79\": {\"O\": 1}, \"80\": {\"O\": 1}, \"81\": {\"O\": 1}}" energy=-485.24273681640625 free_energy=-485.24273681640625 stress="-0.0017866292037069798 -0.0030177931766957045 -0.002228343393653631 -0.0030177931766957045 -0.005134444683790207 0.0009838709374889731 -0.002228343393653631 0.0009838709374889731 -0.002868121489882469" pbc="T T T"
Zn       3.03440863       7.27404412       3.97527608        0       0.08336629       0.36066696      -0.10024451
Zn       1.00561132       1.00603218      12.30409025        1      -0.10896917      -0.35116938       0.11139324
H        3.06338573       4.13463889       8.00841314        2      -0.00505507      -0.25112048       0.07472362
H        0.99201511       4.19217513       8.30535590        3      -0.21800086      -0.04640209      -0.07900112
H       -0.14963840       5.50208035       6.57554492        4       0.12268299      -0.13950685       0.16965304
H        4.20260730       2.78490245       9.72109347        5      -0.15591881       0.06333482      -0.06376423
H        5.77107759       6.37000578       1.52168746        6       0.07302392      -0.48816112      -0.53458530
H       -1.75290381       2.00234397      14.82923964        7       0.27124143      -0.61095870      -0.50710732
H        2.21933739       4.26666432       0.10136617        8       1.31121361      -0.38771933      -0.03698111
H        1.80477082       4.08582252      16.24506772        9      -0.39111984      -0.11160508      -0.23301817
H        0.64226688       8.08136236       5.72175533       10       1.05070519       1.11558521       0.05684607
H        3.38160777       0.22826495      10.61452420       11      -0.66087627      -0.58345205      -0.08983023
H        3.27209729       1.33286878       6.58693556       12      -0.82007861      -0.02117310       0.41503537
H        0.77684011       7.01374091       9.77838089       13      -0.85410398       0.23812658       0.30774131
H        2.34363785       1.56654188       8.13846607       14       0.03145206       0.08156603       0.10695750
H        1.63944090       6.75478872       8.24212383       15      -0.14030881       0.12795012      -0.94411111
H        1.82108614       2.37816834       6.63370349       16      -0.10691033      -0.32560429       0.08608517
H        2.19379200       5.96137009       9.69976346       17      -0.27934533       0.80278391      -0.20338875
H       -0.44787963       1.05974148       7.18886189       18       0.21175192      -0.32172155       0.01094809
H        4.48326548       7.26324214       9.11493952       19      -0.06795052      -0.11323296       0.09322400
H       -0.83264186       8.86982000       7.04493906       20      -0.40350711      -0.85557055      -0.44532824
H        4.85518324      -0.53891233       9.30105457       21       0.18575494       0.12725294       0.10606197
H        0.26582352       0.10819960       8.50044276       22       0.02865102      -0.06514734      -0.23387630
H        3.70591670       8.24375669       7.82281478       23       0.15942445      -0.10091096       0.79632986
H        2.91461205       0.34166979       2.64307136       24       0.32061875      -0.30317679      -0.18097842
H        1.14418982       7.95754921      13.69532177       25      -0.80251139       0.27865309       0.44825038
H        4.15173226       2.98823066       1.18400262       26       0.27345771      -0.03077994      -0.18500358
H       -0.21288534       5.35120659      15.13895994       27      -0.44191590      -0.81435591      -0.01160611
H        2.71114002       2.11168851       1.50827537       28       0.12475418      -0.07704870      -0.64873612
H        1.31711205       6.16637127      14.86038496       29       0.17064792       0.07699147      -0.18227430
H        0.83618961       0.88098624      16.27060845       30      -0.00328498      -0.27591920       0.26499599
H        3.21805061       7.43767686       0.02023962       31       0.01450177      -0.14061764       0.57729942
H        6.35462163       1.54235986       1.07270801       32       0.91060960       1.08404732       0.38037694
H       -2.34099069       6.82232090      15.27825254       33      -0.43264171      -0.61930275      -0.20099902
H        3.01033113      -0.43462169      16.08276567       34      -0.07676291       0.03354307       0.69806862
H        0.97401612       8.83095271       0.23654680       35       0.20362477      -0.13579951      -0.42798457
H        5.66121894       9.34136527       1.12655176       36      -0.34525633       0.88575590      -0.36469632
H       -1.62752070      -1.05610116      15.24957715       37      -0.90578830       2.25324488      -0.95365202
C        4.20603903       5.74254686       6.13646319       38      -0.13213345       0.34328181       0.12330320
C       -0.17116461       2.53080388      10.16352161       39       0.49998182       1.24712491      -0.76688623
C        4.85489168       5.02070370       7.16718345       40       0.76127160      -2.80322695       1.27001619
C       -0.82957013       3.35629148       9.16188080       41       0.14964038       0.48408020      -0.21812493