76
Lattice="7.68931228 0.0 0.0 3.8459322237947093 7.81935394812155 0.0 3.842105763715135 -0.003567489554763004 12.471350420247001" Properties=species:S:1:pos:R:3:spacegroup_kinds:I:1:forces:R:3 spacegroup="P 1" unit_cell=conventional occupancy="_JSON {\"0\": {\"Cu\": 1}, \"1\": {\"Cu\": 1}, \"2\": {\"Cu\": 1}, \"3\": {\"Cu\": 1}, \"4\": {\"H\": 1}, \"5\": {\"H\": 1}, \"6\": {\"H\": 1}, \"7\": {\"H\": 1}, \"8\": {\"H\": 1}, \"9\": {\"H\": 1}, \"10\": {\"H\": 1}, \"11\": {\"H\": 1}, \"12\": {\"H\": 1}, \"13\": {\"H\": 1}, \"14\": {\"H\": 1}, \"15\": {\"H\": 1}, \"16\": {\"H\": 1}, \"17\": {\"H\": 1}, \"18\": {\"H\": 1}, \"19\": {\"H\": 1}, \"20\": {\"H\": 1}, \"21\": {\"H\": 1}, \"22\": {\"H\": 1}, \"23\": {\"H\": 1}, \"24\": {\"H\": 1}, \"25\": {\"H\": 1}, \"26\": {\"H\": 1}, \"27\": {\"H\": 1}, \"28\": {\"H\": 1}, \"29\": {\"H\": 1}, \"30\": {\"H\": 1}, \"31\": {\"H\": 1}, \"32\": {\"H\": 1}, \"33\": {\"H\": 1}, \"34\": {\"H\": 1}, \"35\": {\"H\": 1}, \"36\": {\"C\": 1}, \"37\": {\"C\": 1}, \"38\": {\"C\": 1}, \"39\": {\"C\": 1}, \"40\": {\"C\": 1}, \"41\": {\"C\": 1}, \"42\": {\"C\": 1}, \"43\": {\"C\": 1}, \"44\": {\"C\": 1}, \"45\": {\"C\": 1}, \"46\": {\"C\": 1}, \"47\": {\"C\": 1}, \"48\": {\"C\": 1}, \"49\": {\"C\": 1}, \"50\": {\"C\": 1}, \"51\": {\"C\": 1}, \"52\": {\"C\": 1}, \"53\": {\"C\": 1}, \"54\": {\"C\": 1}, \"55\": {\"C\": 1}, \"56\": {\"C\": 1}, \"57\": {\"C\": 1}, \"58\": {\"C\": 1}, \"59\": {\"C\": 1}, \"60\": {\"N\": 1}, \"61\": {\"N\": 1}, \"62\": {\"N\": 1}, \"63\": {\"N\": 1}, \"64\": {\"N\": 1}, \"65\": {\"N\": 1}, \"66\": {\"N\": 1}, \"67\": {\"N\": 1}, \"68\": {\"N\": 1}, \"69\": {\"N\": 1}, \"70\": {\"N\": 1}, \"71\": {\"N\": 1}, \"72\": {\"N\": 1}, \"73\": {\"N\": 1}, \"74\": {\"N\": 1}, \"75\": {\"N\": 1}}" energy=-480.0771484375 free_energy=-480.0771484375 stress="0.0022987585980445147 -0.0005184796173125505 -7.164919952629134e-05 -0.0005184796173125505 -0.0029350905679166317 0.0005691240658052266 -7.164919952629134e-05 0.0005691240658052266 -0.006444140337407589" pbc="T T T"
Cu       6.14785816       1.31837737       8.21360347        0       0.04875909      -0.73669744       0.09824881
Cu       6.15132279       6.49755613       4.25829807        1       0.04466370       0.73745632      -0.11825934
Cu      11.91599595       5.22841811      10.49536375        2       0.04969083      -0.71931529      -0.11647116
Cu       4.22741393       2.58855181       1.97624442        3       0.06128898       0.74357849       0.09634447
H        4.54135289       7.20935785       2.20623748        4      -0.02934795      -0.05514291       0.07397879
H        4.53337173       0.60858735      10.25823153        5      -0.04977179       0.01170769      -0.03521760
H       10.30600024       3.29675482       4.02874837        6      -0.14665005       0.07475824      -0.04101767
H       10.30323361       4.51654469       8.44824673        7      -0.10088965      -0.00539644       0.04209842
H       10.52615958       7.68282236       2.00918922        8       0.20033288      -0.06057736       0.11206478
H       10.52362231       0.13201585      10.46151792        9      -0.00570931       0.12406793      -0.15303268
H        8.60058247       3.77521228       4.22661732       10       0.01631325      -0.11910136      -0.15077350
H        8.59548022       4.04312465       8.25215219       11       0.13784982       0.08633923       0.12712072
H       12.00766793       7.16575284       6.88587724       12       0.04960541      -0.00532638       0.01589832
H        4.31691268       0.64704136       5.58466601       13       0.05237208       0.05256885      -0.06985506
H        6.24088086       3.25391790      11.82179513       14       0.02650169       0.02120477      -0.00198151
H        6.24133961       4.56094665       0.64909770       15       0.03549424      -0.00297363       0.02428289
H        8.97485194       1.74688699       2.77556569       16      -0.04405789       0.09885336      -0.05335281
H        8.96524115       6.06449021       9.69883073       17       0.14853752      -0.15806636       0.03750305
H       10.89191251       5.65773370       3.46127865       18       0.03963466       0.10616121       0.06263950
H       10.89258015       2.15668432       9.00562880       19      -0.04875641      -0.08981720      -0.03075393
H        7.25211968       2.21593155       2.62988912       20      -0.09275980       0.10133694      -0.21232873
H        7.24640713       5.60117174       9.83889485       21      -0.14535981      -0.17178884       0.20729625
H        9.17564943       6.12592869       3.60567541       22      -0.17658231       0.17926231       0.22068349
H        9.17048116       1.69328151       8.86609243       23      -0.16367292      -0.18863998      -0.18816838
H        6.26237681       2.51626118       4.86829480       24       0.03020518      -0.15199676       0.03643486
H        6.26318216       5.30275368       7.60363550       25       0.02791044       0.15008338      -0.08485551
H        8.19047238       6.42848056       1.36694805       26       0.00711203      -0.13050069      -0.05052373
H        8.18917292       1.38761198      11.10528178       27      -0.06612492       0.02357221      -0.00430554
H        1.26972532       1.12311967       0.38902269       28       0.18035752       0.07754573      -0.00164302
H        8.95820318       6.69064247      12.07417319       29      -0.00129100      -0.01291814      -0.00161827
H       10.88328868       5.03238362       5.84784352       30      -0.00149878       0.00440989      -0.01842970
H       10.87083235       2.77881636       6.62818405       31       0.02102620       0.01345740       0.00020356
H        7.23132243       1.33009731       0.14245812       32       0.06394652       0.00123712      -0.06232146
H        7.22588477       6.48921891      12.33146916       33       0.01055942      -0.05224220       0.06618306
H        9.14690967       5.24343834       6.09286843       34       0.11173446      -0.03082217       0.06190170
H        9.13987786       2.58420006       6.37789384       35       0.05062385       0.01009199      -0.07439623
C        7.72341271       0.21752338       1.91069297       36      -0.14351292       0.05820340       0.03189534
C        7.71699359       7.60131316      10.55925729       37       0.09476362      -0.27451196      -0.12612668
C        9.63760608       4.12719724       4.32133445       38       0.22153860       0.03495938       0.15997264
C        9.63606243       3.69038435       8.15048164       39       0.03407796      -0.06764881       0.02721609
C        7.86453983       0.04295560       6.11149881       40       0.18683442      -0.33705536       0.33482552
C        7.86087942       7.77548177       6.35920995       41       0.35332447       0.41773316      -0.28924549
C        2.09919329       3.95266461       0.12651208       42       0.27179825      -0.42559257      -0.46136880
C        9.78635896       3.86210272      12.34482043       43       0.20715120       0.38468176       0.53563732
C        5.64808522       2.94590979       8.92438132       44      -0.33144188       0.89266092       0.51081234
C        5.64745953       4.87026395       3.54308342       45      -0.25658047      -0.72523355      -0.41261584
C       11.41276450       6.85967494       9.78398785       46      -0.16225526       0.45398539      -0.26413515
C        3.72810690       0.96027566       2.68683934       47      -0.23888583      -0.66586584       0.37570053
C        7.93745457       1.38628000       2.85221101       48      -0.04447184      -0.02410579       0.22403532
C        7.93521928       6.42380833       9.61643498       49      -0.27239719       0.39822870      -0.21024978
C        9.85729799       5.29759600       3.38564305       50      -0.09034540      -0.17675987      -0.41728446
C        9.85585392       2.51738846       9.09060057       51       0.00127579       0.24035999       0.19832477
C        6.88139078       1.65768230       5.12815643       52      -0.13346832       0.34628779      -0.05255317
C        6.88161167       6.15930569       7.33427099       53      -0.08629985      -0.46480292       0.52674431
C        8.80575000       5.56969110       1.10256389       54      -0.03644435       0.33653727       0.31539938
C        8.80179674       2.24396548      11.36539090       55       0.15314744      -0.09731612      -0.17484587
C        7.99381580       0.60615801       0.46585064       56      -0.13350916      -0.03903079      -0.14748189
C        7.98616573       7.20912509      12.00272583       57       0.18022345       0.06248985       0.16816318
C        9.91016342       4.51669357       5.77220076       58      -0.01562984       0.09183578      -0.01561356
C        9.90394734       3.30616202       6.70148866       59       0.05076446      -0.14095414      -0.01550785
N        7.68939281       1.03947681       4.24640877       60       0.09806756       0.19430190      -0.41273901
N        7.68650145       6.78096372       8.22081701       61       0.11498043      -0.34991971       0.54737872
N        9.60950308       4.94590283       1.98637190       62       0.16479118       0.29310325       0.64836234
N        9.61310450       2.87045729      10.48706486       63       0.01572213      -0.45466518      -0.68627733
N        5.27415504       3.91974556       9.48806796       64       0.04199499      -0.44016802      -0.25684860
N        5.27804045       3.89676182       2.98053435       65      -0.02051210       0.30038470       0.17014316
N        7.19737904       0.00891977       9.22055741       66      -0.11878543      -0.03603704       0.02142635
N        7.20388776       7.80685662       3.24785500       67      -0.05683433       0.19990967      -0.11068448
N        6.97380958       1.05039728       6.32591128       68       0.03175758      -0.13910048       0.01397011
N        6.97905279       6.76559137       6.14817090       69      -0.15554954       0.17188886      -0.51556587
N       12.74580012       4.96046459      12.38316950       70      -0.04200301      -0.22059375      -0.31717491
N        5.05979108       2.85462729       0.08556479       71      -0.12637776       0.15017429       0.33582032
N        8.32806967       0.00342041       4.86487029       72       0.00276136      -0.27323580       0.18984151
N        8.32615677       7.81527672       7.60507514       73      -0.01161100       0.29579192      -0.15817499
N        2.56345696       3.90905852       1.37140498       74      -0.11369477      -0.16368337      -0.14782390
N       10.25041287       3.90436812      11.10277594       75       0.02358835       0.26639268       0.04307229
76
Lattice="7.68931228 0.0 0.0 3.8459322237947093 7.81935394812155 0.0 3.842105763715135 -0.003567489554763004 12.471350420247001" Properties=species:S:1:pos:R:3:spacegroup_kinds:I:1:forces:R:3 spacegroup="P 1" unit_cell=conventional occupancy="_JSON {\"0\": {\"Cu\": 1}, \"1\": {\"Cu\": 1}, \"2\": {\"Cu\": 1}, \"3\": {\"Cu\": 1}, \"4\": {\"H\": 1}, \"5\": {\"H\": 1}, \"6\": {\"H\": 1}, \"7\": {\"H\": 1}, \"8\": {\"H\": 1}, \"9\": {\"H\": 1}, \"10\": {\"H\": 1}, \"11\": {\"H\": 1}, \"12\": {\"H\": 1}, \"13\": {\"H\": 1}, \"14\": {\"H\": 1}, \"15\": {\"H\": 1}, \"16\": {\"H\": 1}, \"17\": {\"H\": 1}, \"18\": {\"H\": 1}, \"19\": {\"H\": 1}, \"20\": {\"H\": 1}, \"21\": {\"H\": 1}, \"22\": {\"H\": 1}, \"23\": {\"H\": 1}, \"24\": {\"H\": 1}, \"25\": {\"H\": 1}, \"26\": {\"H\": 1}, \"27\": {\"H\": 1}, \"28\": {\"H\": 1}, \"29\": {\"H\": 1}, \"30\": {\"H\": 1}, \"31\": {\"H\": 1}, \"32\": {\"H\": 1}, \"33\": {\"H\": 1}, \"34\": {\"H\": 1}, \"35\": {\"H\": 1}, \"36\": {\"C\": 1}, \"37\": {\"C\": 1}, \"38\": {\"C\": 1}, \"39\": {\"C\": 1}, \"40\": {\"C\": 1}, \"41\": {\"C\": 1}, \"42\": {\"C\": 1}, \"43\": {\"C\": 1}, \"44\": {\"C\": 1}, \"45\": {\"C\": 1}, \"46\": {\"C\": 1}, \"47\": {\"C\": 1}, \"48\": {\"C\": 1}, \"49\": {\"C\": 1}, \"50\": {\"C\": 1}, \"51\": {\"C\": 1}, \"52\": {\"C\": 1}, \"53\": {\"C\": 1}, \"54\": {\"C\": 1}, \"55\": {\"C\": 1}, \"56\": {\"C\": 1}, \"57\": {\"C\": 1}, \"58\": {\"C\": 1}, \"59\": {\"C\": 1}, \"60\": {\"N\": 1}, \"61\": {\"N\": 1}, \"62\": {\"N\": 1}, \"63\": {\"N\": 1}, \"64\": {\"N\": 1}, \"65\": {\"N\": 1}, \"66\": {\"N\": 1}, \"67\": {\"N\": 1}, \"68\": {\"N\": 1}, \"69\": {\"N\": 1}, \"70\": {\"N\": 1}, \"71\": {\"N\": 1}, \"72\": {\"N\": 1}, \"73\": {\"N\": 1}, \"74\": {\"N\": 1}, \"75\": {\"N\": 1}}" energy=-480.0662536621094 free_energy=-480.0662536621094 stress="0.0018374854698777199 -0.000977043528109789 0.00036242601345293224 -0.000977043528109789 -0.0032046823762357235 0.00021760849631391466 0.00036242601345293224 0.00021760849631391466 -0.0068635111674666405" pbc="T T T"
Cu       6.14998942       1.31585560       8.21269952        0       0.03052409      -0.69698215       0.10752431
Cu       6.15157261       6.49966000       4.25973720        1       0.02078450       0.68526906      -0.14055049
Cu      11.91648861       5.23001692      10.49833789        2       0.04651338      -0.72169572      -0.13471666
Cu       4.23017763       2.58823147       1.97906482        3       0.05645122       0.72217447       0.08822668
H        4.54254849       7.21176830       2.20531441        4      -0.02816714      -0.06319176       0.07675761
H        4.53207692       0.60783008      10.25695069        5       0.02023811       0.07506047      -0.06149018
H       10.30882921       3.29384914       4.02956028        6      -0.17421532       0.11784195      -0.03718204
H       10.30054061       4.51777976       8.44772816        7      -0.08269124      -0.01447481       0.04847518
H       10.52745109       7.68345345       2.01107376        8       0.17398335      -0.07489769       0.09217823
H       10.52263039       0.13345304      10.46009747        9       0.10920748       0.07485830      -0.14753784
H        8.60231784       3.77526838       4.22459494       10      -0.01986429      -0.15077879      -0.15455997
H        8.59641908       4.04213977       8.24975850       11       0.12652259       0.08188496       0.13177162
H       12.00713868       7.16499114       6.88674014       12       0.03428109       0.03059590      -0.02987511
H        4.31469790       0.64576937       5.58461860       13       0.05097006       0.05047357      -0.07729346
H        6.24113547       3.25360049      11.81915178       14      -0.01474145       0.10646043       0.10950226
H        6.23956315       4.55886129       0.64643336       15       0.04605657       0.02620763       0.07316296
H        8.97560119       1.74931632       2.77439896       16      -0.14861999       0.05312103      -0.03173550
H        8.96445776       6.06667499       9.70044558       17       0.25847268      -0.21517983       0.04577000
H       10.89259757       5.65956562       3.45977284       18      -0.08199562       0.05349907       0.04890382
H       10.89026109       2.15902759       9.00642494       19       0.04586639      -0.12899274      -0.03669009
H        7.25492103       2.21485212       2.62932803       20      -0.17369555       0.17665590      -0.22666267
H        7.24425271       5.59913569       9.83753310       21      -0.07358934      -0.10432829       0.21001485
H        9.17600353       6.12783255       3.60485275       22      -0.17720795       0.12964152       0.20782796
H        9.17330737       1.69246505       8.86682690       23      -0.22575215      -0.25728190      -0.22405076
H        6.25949463       2.51669611       4.86659091       24       0.08483563      -0.20684859       0.05266983
H        6.26135045       5.30525763       7.60128219       25       0.03720677       0.15270548      -0.08413765
H        8.19233455       6.42810217       1.36394306       26      -0.08647888       0.00152647       0.01752286
H        8.18945255       1.38525283      11.10621014       27       0.01115856       0.14158592       0.03559642
H        1.26929590       1.12292441       0.39169117       28       0.25524914       0.11492566      -0.02848462
H        8.95736619       6.69109424      12.07414100       29       0.07678087      -0.05912438       0.00189951
H       10.88212927       5.03243878       5.84816906       30      -0.01782677       0.00445913      -0.01501209
H       10.86888798       2.77759967       6.62610445       31       0.06981769       0.01083944       0.00982573
H        7.23354918       1.32756886       0.13978597       32       0.01470064       0.06149841      -0.08681149
H        7.22455589       6.48679954      12.33402327       33       0.09339385       0.03106732       0.01310632
H        9.14547856       5.24584763       6.09314691       34       0.10538740      -0.04258396       0.05962252
H        9.14280022       2.58389519       6.37744308       35       0.01438616      -0.00533675      -0.06950179
C        7.72328012       0.21863924       1.90988899       36      -0.12102348       0.06746677       0.02910315
C        7.71987639       7.60100065      10.55654895       37      -0.11491200      -0.29622132      -0.02135766
C        9.63844636       4.12578275       4.31853625       38       0.24703310       0.04321830       0.30113935
C        9.63694537       3.68912144       8.14952359       39      -0.01040011      -0.04630694       0.09202487
C        7.86500373       0.04242951       6.10954607       40       0.13434395      -0.31343597       0.45849365
C        7.85916615       7.77306545       6.35821314       41       0.47374493       0.60073841      -0.19674820
C        2.09684073       3.95253030       0.12892994       42       0.32905930      -0.50713694      -0.65141451
C        9.78503073       3.85952230      12.34463567       43       0.30751562       0.49641770       0.50727665
C        5.64852330       2.94747300       8.92295861       44      -0.25224289       0.67096895       0.38879922
C        5.64745166       4.86815565       3.54192513       45      -0.22190237      -0.63060105      -0.35691249
C       11.41294998       6.85928196       9.78289434       46      -0.22254446       0.61355567      -0.35153487
C        3.72573001       0.95895572       2.68670050       47      -0.21891569      -0.62675661       0.35424960
C        7.93505315       1.38614786       2.85392673       48       0.16451931      -0.01614025       0.14414783
C        7.93744593       6.42298213       9.61792441       49      -0.45271343       0.35337746      -0.29543927
C        9.85453503       5.29568067       3.38385336       50       0.07604213      -0.07818040      -0.41384605
C        9.85552285       2.51577199       9.08871894       51      -0.03564105       0.34655327       0.32159829
C        6.88413627       1.65945498       5.12785314       52      -0.27259126       0.43505174      -0.01528504
C        6.88166392       6.16123779       7.33336352       53      -0.11748633      -0.60479075       0.67766517
C        8.80331552       5.57144545       1.10490590       54       0.10156361       0.07276484       0.07279330
C        8.80273981       2.24675321      11.36678767       55      -0.06345522      -0.46683815      -0.33723158
C        7.99553199       0.60723493       0.46333513       56      -0.18303388      -0.16074607      -0.05476956
C        7.98785987       7.20779390      12.00163957       57       0.03867203       0.08349772       0.19392672
C        9.90785098       4.51777360       5.77408564       58       0.03316699       0.04338302      -0.11432844
C        9.90438306       3.30587449       6.70383817       59       0.03563971      -0.09821197      -0.14067186
N        7.68758966       1.04184490       4.24575391       60       0.21949533       0.05510532      -0.39074731
N        7.68923280       6.77799788       8.22015017       61       0.12236291      -0.26694411       0.57120901
N        9.60823753       4.94317285       1.98404958       62       0.13831687       0.43175247       0.81931645
N        9.61066303       2.86801822      10.48851174       63       0.16314211      -0.32086271      -0.86095375
N        5.27457136       3.91794889       9.48620975       64      -0.03722477      -0.23168825      -0.13827571
N        5.27840724       3.89412127       2.98186692       65      -0.03466482       0.25654605       0.13864353
N        7.19523479       0.01094364       9.22027815       66      -0.04613525      -0.21468709       0.11953655
N        7.20125509       7.80722105       3.24956501       67      -0.06283683       0.17700207      -0.09969391
N        6.97256314       1.05213163       6.32597268       68       0.13237196      -0.22383867      -0.03354223
N        6.97926782       6.76671879       6.15076294       69      -0.24376203       0.12442715      -0.69440192
N       12.74350235       4.96126362      12.38107836       70       0.01524977      -0.22832140      -0.10032245
N        5.06223149       2.85323213       0.08315392       71      -0.22625417       0.16047898       0.60313082
N        8.32996884       0.00210519       4.86527708       72      -0.07458975      -0.17179842       0.12251506
N        8.32358599       7.81808425       7.60623250       73      -0.00830786       0.22421058      -0.21413547
N        2.56572603       3.90922540       1.37324395       74      -0.21305616      -0.15250185      -0.27200884
N       10.24894233       3.90427963      11.10313890       75       0.02351280       0.23883888      -0.00601481
76
Lattice="7.68931228 0.0 0.0 3.8459322237947093 7.81935394812155 0.0 3.842105763715135 -0.003567489554763004 12.471350420247001" Properties=species:S:1:pos:R:3:spacegroup_kinds:I:1:forces:R:3 spacegroup="P 1" unit_cell=conventional occupancy="_JSON {\"0\": {\"Cu\": 1}, \"1\": {\"Cu\": 1}, \"2\": {\"Cu\": 1}, \"3\": {\"Cu\": 1}, \"4\": {\"H\": 1}, \"5\": {\"H\": 1}, \"6\": {\"H\": 1}, \"7\": {\"H\": 1}, \"8\": {\"H\": 1}, \"9\": {\"H\": 1}, \"10\": {\"H\": 1}, \"11\": {\"H\": 1}, \"12\": {\"H\": 1}, \"13\": {\"H\": 1}, \"14\": {\"H\": 1}, \"15\": {\"H\": 1}, \"16\": {\"H\": 1}, \"17\": {\"H\": 1}, \"18\": {\"H\": 1}, \"19\": {\"H\": 1}, \"20\": {\"H\": 1}, \"21\": {\"H\": 1}, \"22\": {\"H\": 1}, \"23\": {\"H\": 1}, \"24\": {\"H\": 1}, \"25\": {\"H\": 1}, \"26\": {\"H\": 1}, \"27\": {\"H\": 1}, \"28\": {\"H\": 1}, \"29\": {\"H\": 1}, \"30\": {\"H\": 1}, \"31\": {\"H\": 1}, \"32\": {\"H\": 1}, \"33\": {\"H\": 1}, \"34\": {\"H\": 1}, \"35\": {\"H\": 1}, \"36\": {\"C\": 1}, \"37\": {\"C\": 1}, \"38\": {\"C\": 1}, \"39\": {\"C\": 1}, \"40\": {\"C\": 1}, \"41\": {\"C\": 1}, \"42\": {\"C\": 1}, \"43\": {\"C\": 1}, \"44\": {\"C\": 1}, \"45\": {\"C\": 1}, \"46\": {\"C\": 1}, \"47\": {\"C\": 1}, \"48\": {\"C\": 1}, \"49\": {\"C\": 1}, \"50\": {\"C\": 1}, \"51\": {\"C\": 1}, \"52\": {\"C\": 1}, \"53\": {\"C\": 1}, \"54\": {\"C\": 1}, \"55\": {\"C\": 1}, \"56\": {\"C\": 1}, \"57\": {\"C\": 1}, \"58\": {\"C\": 1}, \"59\": {\"C\": 1}, \"60\": {\"N\": 1}, \"61\": {\"N\": 1}, \"62\": {\"N\": 1}, \"63\": {\"N\": 1}, \"64\": {\"N\": 1}, \"65\": {\"N\": 1}, \"66\": {\"N\": 1}, \"67\": {\"N\": 1}, \"68\": {\"N\": 1}, \"69\": {\"N\": 1}, \"70\": {\"N\": 1}, \"71\": {\"N\": 1}, \"72\": {\"N\": 1}, \"73\": {\"N\": 1}, \"74\": {\"N\": 1}, \"75\": {\"N\": 1}}" energy=-480.0662536621094 free_energy=-480.0662536621094 stress="0.0022791502997279167 -0.0009982475312426686 0.0004893565201200545 -0.0009982475312426686 -0.0026560616679489613 0.00034813504316844046 0.0004893565201200545 0.00034813504316844046 -0.006955928634852171" pbc="T T T"
Cu       6.15166465       1.31490551       8.21507851        0       0.02281435      -0.67573494       0.09631330
Cu       6.15317588       6.49955697       4.26141236        1       0.00837730       0.66649818      -0.15344645
Cu      11.91739696       5.22733080      10.49723437        2       0.02870455      -0.67464864      -0.14425482
Cu       4.22959302       2.58937178       1.98028434        3       0.05177410       0.70148981       0.08951136
H        4.54080236       7.21311129       2.20488900        4       0.01737860      -0.09479798       0.09040934
H        4.53075109       0.60660350      10.25698699        5       0.10289624       0.18586482      -0.09493233
H       10.30640863       3.29455087       4.02998441        6      -0.06972969       0.01107985      -0.07046917
H       10.29826527       4.51490824       8.44934190        7      -0.02145637       0.07412159       0.03969469
H       10.52584816       7.68062236       2.01240013        8       0.28751796      -0.01510486       0.07971587
H       10.51969069       0.13097796      10.46238925        9       0.19713569       0.07761188      -0.15766098
H        8.60224880       3.77346551       4.22169504       10       0.06034371      -0.12396517      -0.14665672
H        8.59683165       4.04334789       8.25157630       11       0.07498868       0.09939034       0.10359307
H       12.00834525       7.16461627       6.88377876       12       0.06019418      -0.03182808       0.04911850
H        4.31471813       0.64522186       5.58211499       13       0.02205017      -0.00732671       0.00029127
H        6.23872928       3.25147661      11.81914467       14      -0.02765921       0.13049896       0.14460260
H        6.24205750       4.55922313       0.64918538       15       0.02224162       0.01346673       0.05886152
H        8.97773744       1.75095144       2.77264071       16      -0.19456106       0.03631265      -0.01735623
H        8.96294366       6.06891303       9.69991772       17       0.27620712      -0.22982241       0.06851083
H       10.89083198       5.66163729       3.45679585       18      -0.03503593       0.04147360       0.05402473
H       10.89182336       2.15650227       9.00860840       19      -0.07073756      -0.06698538      -0.03660110
H        7.25508331       2.21712852       2.62636224       20      -0.12219904       0.10649712      -0.17781439
H        7.24349307       5.59716569       9.83606561       21      -0.05606988      -0.05866368       0.22939473
H        9.17818163       6.12941459       3.60278207       22      -0.15886268       0.06799455       0.21588388
H        9.17255270       1.69149538       8.86707029       23      -0.18084829      -0.19061160      -0.20812130
H        6.25969210       2.51689212       4.86414690       24       0.08177808      -0.21209595       0.04936627
H        6.26141010       5.30280169       7.60090374       25       0.08831749       0.21853232      -0.10430501
H        8.19078277       6.42538426       1.36429321       26      -0.16663361       0.12368953       0.05916896
H        8.18804025       1.38412626      11.10755969       27       0.07048168       0.20759709       0.05042663
H        1.26792884       1.12327786       0.39351625       28       0.30664045       0.13346553      -0.04905056
H        8.95451597       6.69300651      12.07648002       29       0.11749457      -0.08238181       0.00314764
H       10.88210713       5.03046260       5.84587958       30      -0.07103673      -0.02694627      -0.00261522
H       10.87151104       2.77480799       6.62549420       31       0.02314422       0.04280005       0.01493782
H        7.23456221       1.32959050       0.14102690       32      -0.00460537       0.07365203      -0.09794318
H        7.22620173       6.48699421      12.33431659       33       0.01073738      -0.01704524       0.03455994
H        9.14837369       5.24450419       6.09421587       34       0.03373213      -0.00895517       0.07173423
H        9.14477570       2.58155435       6.37719519       35      -0.03070371      -0.05049435      -0.08909414
C        7.72463879       0.22064095       1.91051775       36      -0.28106850       0.02527031       0.00590277
C        7.72184804       7.60320250      10.55534144       37      -0.35647434      -0.41613337       0.11296421
C        9.64121857       4.12424361       4.31784838       38       0.00802828       0.10774541       0.33994260
C        9.63539849       3.69171794       8.14675222       39       0.02832415      -0.24575090       0.16125281
C        7.86730085       0.04063061       6.10922709       40       0.02253927      -0.14030975       0.35749123
C        7.85842705       7.77269924       6.35955981       41       0.49163270       0.63770914      -0.27742648
C        2.09415676       3.94957925       0.13150265       42       0.32185936      -0.49408823      -0.78227556
C        9.78246258       3.86224816      12.34635587       43       0.29190382       0.39871356       0.45404100
C        5.64833175       2.94689350       8.92458726       44      -0.26448455       0.71123767       0.40733072
C        5.64966424       4.86745873       3.54061831       45      -0.20764026      -0.56787241      -0.32261679
C       11.41337042       6.86079834       9.78009260       46      -0.20666730       0.56155694      -0.31963983
C        3.72843589       0.95776332       2.68727484       47      -0.26604450      -0.72245252       0.41249275
C        7.93596640       1.38644804       2.85602378       48       0.18830428       0.06258672      -0.00137307
C        7.93589989       6.42450826       9.62062608       49      -0.42941380       0.26946399      -0.40352482
C        9.85552436       5.29302953       3.38415769       50       0.00728487       0.01687533      -0.47734189
C        9.85428557       2.51828118       9.09105576       51       0.02739231       0.21405424       0.16623060
C        6.88254872       1.65838654       5.12537579       52      -0.17327870       0.35354692      -0.02032304
C        6.88306166       6.16080278       7.33129129       53      -0.18880673      -0.78563815       0.88273442
C        8.80126171       5.57365181       1.10694245       54       0.24631287      -0.20989233      -0.08847144
C        8.80565355       2.24629020      11.36772418       55      -0.21077463      -0.61819702      -0.37709081
C        7.99543107       0.60859315       0.46299019       56      -0.22822013      -0.20413190      -0.00100533