88
Lattice="3.99236959 0.0 0.0 0.8599598991172991 23.548703631496117 0.0 0.8243038452566849 11.690836053048827 20.36677404914761" Properties=species:S:1:pos:R:3:spacegroup_kinds:I:1:forces:R:3 spacegroup="P 1" unit_cell=conventional occupancy="_JSON {\"0\": {\"Al\": 1}, \"1\": {\"H\": 1}, \"2\": {\"H\": 1}, \"3\": {\"H\": 1}, \"4\": {\"H\": 1}, \"5\": {\"H\": 1}, \"6\": {\"H\": 1}, \"7\": {\"H\": 1}, \"8\": {\"H\": 1}, \"9\": {\"H\": 1}, \"10\": {\"H\": 1}, \"11\": {\"H\": 1}, \"12\": {\"H\": 1}, \"13\": {\"H\": 1}, \"14\": {\"H\": 1}, \"15\": {\"H\": 1}, \"16\": {\"H\": 1}, \"17\": {\"H\": 1}, \"18\": {\"H\": 1}, \"19\": {\"H\": 1}, \"20\": {\"H\": 1}, \"21\": {\"H\": 1}, \"22\": {\"H\": 1}, \"23\": {\"H\": 1}, \"24\": {\"H\": 1}, \"25\": {\"H\": 1}, \"26\": {\"H\": 1}, \"27\": {\"H\": 1}, \"28\": {\"H\": 1}, \"29\": {\"H\": 1}, \"30\": {\"H\": 1}, \"31\": {\"H\": 1}, \"32\": {\"H\": 1}, \"33\": {\"H\": 1}, \"34\": {\"C\": 1}, \"35\": {\"C\": 1}, \"36\": {\"C\": 1}, \"37\": {\"C\": 1}, \"38\": {\"C\": 1}, \"39\": {\"C\": 1}, \"40\": {\"C\": 1}, \"41\": {\"C\": 1}, \"42\": {\"C\": 1}, \"43\": {\"C\": 1}, \"44\": {\"C\": 1}, \"45\": {\"C\": 1}, \"46\": {\"C\": 1}, \"47\": {\"C\": 1}, \"48\": {\"C\": 1}, \"49\": {\"C\": 1}, \"50\": {\"C\": 1}, \"51\": {\"C\": 1}, \"52\": {\"C\": 1}, \"53\": {\"C\": 1}, \"54\": {\"C\": 1}, \"55\": {\"C\": 1}, \"56\": {\"C\": 1}, \"57\": {\"C\": 1}, \"58\": {\"C\": 1}, \"59\": {\"C\": 1}, \"60\": {\"C\": 1}, \"61\": {\"C\": 1}, \"62\": {\"C\": 1}, \"63\": {\"C\": 1}, \"64\": {\"C\": 1}, \"65\": {\"C\": 1}, \"66\": {\"C\": 1}, \"67\": {\"C\": 1}, \"68\": {\"C\": 1}, \"69\": {\"C\": 1}, \"70\": {\"C\": 1}, \"71\": {\"C\": 1}, \"72\": {\"C\": 1}, \"73\": {\"C\": 1}, \"74\": {\"C\": 1}, \"75\": {\"C\": 1}, \"76\": {\"C\": 1}, \"77\": {\"C\": 1}, \"78\": {\"C\": 1}, \"79\": {\"C\": 1}, \"80\": {\"C\": 1}, \"81\": {\"C\": 1}, \"82\": {\"O\": 1}, \"83\": {\"O\": 1}, \"84\": {\"O\": 1}, \"85\": {\"O\": 1}, \"86\": {\"O\": 1}, \"87\": {\"O\": 1}}" energy=-609.5205688476562 free_energy=-609.5205688476562 stress="0.00020894783665426075 -4.993108086637221e-05 -9.696336746856105e-06 -4.993108086637221e-05 0.00022623929544351995 -0.00011351377906976268 -9.696336746856105e-06 -0.00011351377906976268 0.00029319353052414954" pbc="T T T"
Al       4.82119631      17.61529647      10.16760701        0       0.00056201      -0.00321280      -0.00149406
H        2.85449116      15.48463875      13.80082699        1       0.00280815       0.00745082       0.00210075
H        2.89575763      15.39548724      16.25518914        2       0.00664479       0.02069896       0.02278641
H        3.44410105       4.08302124       0.33602969        3      -0.04305767       0.04161043      -0.03401880
H        2.60303064      19.80725839       6.41219206        4       0.00106953       0.03772387       0.01765776
H        2.88882692      21.95485446       5.23186518        5      -0.00634222       0.02346808      -0.00955519
H        1.93666821      23.72029339       4.67388348        6       0.02032112       0.04201940       0.03931765
H        1.07989067       2.24828633       3.39046133        7      -0.02740061      -0.00364112      -0.00948608
H        2.18250912       3.72339143       2.12899902        8      -0.01124151      -0.01936096      -0.00874813
H        3.12014370      21.80919579      10.18076960        9       0.00562018       0.01512582      -0.02047513
H        3.15412923      23.97659513       9.03127886       10       0.01039762       0.03659225      -0.00655197
H        3.51369806       4.07360154       6.42515779       11      -0.03208763      -0.04414389      -0.01165884
H        2.73546445      13.27917332      10.17698010       12      -0.01109637      -0.00954747      -0.00790901
H        2.86566132      11.16588801       8.89866370       13      -0.00702813       0.02840760      -0.03922841
H        1.61549644       9.89113825       7.70892002       14       0.00068601       0.00761280      -0.00001639
H        1.40304625       7.73795848       6.56105490       15       0.01131873       0.03073284      -0.02257761
H        2.43011506       5.83290620       5.87070766       16      -0.00376846       0.00256835      -0.01148981
H        2.91899497      15.51025111       6.50597248       17      -0.00352281       0.01099309      -0.02458155
H        2.82391696      13.41620826       5.22079017       18       0.00560426      -0.03312069       0.01906258
H        3.82456608       9.25879594       3.35191912       19      -0.01859949       0.00327204       0.01805742
H        2.86204998      19.78239929      13.94483804       20      -0.00665274      -0.02597477       0.01346314
H        3.10265631      19.69877060      16.40267170       21      -0.01209907       0.00678107       0.02899406
H        1.93468994      19.31758997      18.19758047       22       0.00894246      -0.02449629      -0.00453858
H        1.11778103       7.69612272       0.28434038       23       0.00557052      -0.03730898      -0.04020741
H        2.43376693       8.01407897       2.16600865       24      -0.00261869       0.02024552      -0.02363095
H        1.01691386      11.20426962       3.58742498       25      -0.00885322       0.06527923       0.00022082
H        0.76525575      12.37011368       4.90471549       26       0.01061632      -0.04081440       0.01929592
H        3.62006076      12.30204392       3.54820830       27       0.02151667      -0.02043289      -0.05452536
H        1.29841342      15.01003851      18.80276736       28       0.00165331      -0.03626341      -0.04434156
H        0.90342555      15.57010665      17.16327155       29       0.00724055       0.05057793       0.03900141
H        3.81368794      14.44683190      18.00195700       30       0.04795628      -0.00245124       0.05082464
H        1.38264866      26.41427635       8.02484894       31       0.01774847      -0.02572095       0.06739852
H        1.06557058      24.69592729       8.34688247       32       0.02153392       0.01068589      -0.03412843
H        3.93902074      25.93550652       8.94384073       33       0.02521838       0.06082465       0.02777203
C        2.82525332      17.64956190      12.22316305       34      -0.01148200      -0.01163594      -0.01746255
C        2.82525801      15.81897002       9.16867105       35      -0.08414796       0.01856872       0.07214898
C        2.82433530      19.37551775       9.11173386       36       0.03360828       0.06541586      -0.00976562
C        2.89000677      16.40852803      14.37841952       37       0.00741128      -0.02289823      -0.05070498
C        2.93905349      16.36548679      15.76530409       38      -0.07016069      -0.04146364       0.00108604
C        3.73437037      16.47908105      18.75752720       39       0.05215509       0.03681789      -0.10061069
C        3.71950798      16.54204749      20.15222036       40      -0.05141945      -0.07934700       0.08829995
C        2.75559696      20.72657082       6.98051817       41       0.00971562      -0.00554949       0.04453409
C        2.89682581      21.94576165       6.32126185       42      -0.00581628      -0.06737105       0.01792094
C        2.50675370      24.56852298       5.05361967       43      -0.01198088      -0.02105309      -0.03500902
C        2.50430768      25.74728708       4.32071543       44      -0.02334338      -0.01944341       0.02425511
C        2.85511435      17.63846852      13.71137933       45       0.01904993      -0.09302281      -0.01540839
C        3.02615271      17.53873150      16.53747306       46      -0.02858302       0.06141638      -0.04623198
C        3.09286519      17.50645714      18.01881833       47       0.07776555      -0.01418626       0.01415434
C        2.27573922       5.87891430       0.50435798       48      -0.00755604       0.02968166       0.02670455
C        2.29502211       5.87100929       1.97984680       49       0.01378007       0.04102658      -0.02403104
C        2.24978949       4.65900293       2.68416606       50       0.00369267      -0.03036815       0.07461678
C        3.04528099      21.85098644       9.09365638       51      -0.00917513       0.05725437       0.09639528
C        3.09644371      23.07233535       8.43370683       52      -0.05493274      -0.05605479       0.01748960
C        3.81882422      25.59692575       6.80569512       53       0.08303932      -0.01649965       0.03570889
C        3.80073488      26.77142284       6.05022350       54      -0.08242159       0.09163117      -0.02161296
C        2.78089028      13.30056910       9.08765427       55       0.02825584       0.08107550      -0.05489597
C        2.83865153      12.11510004       8.36059710       56      -0.01154431      -0.04926887       0.06680650
C        2.13484336       9.74535068       6.76334194       57       0.01542525      -0.06497154      -0.02409799
C        2.01337804       8.52441915       6.11449512       58      -0.06363060      -0.01048985       0.04808550
C        2.86260600      20.66593040       8.37666260       59       0.00634253      -0.00801163      -0.13219890
C        3.06255626      23.15466367       7.02823039       60      -0.02688244       0.03070495       0.01728712
C        3.14783090      24.45051822       6.30743892       61       0.01923918      -0.04189962      -0.03683952
C        2.28977211       3.34197669       4.81602923       62       0.04385514       0.05168098       0.00868414
C        2.30160458       4.62422200       4.08571039       63       0.00384079      -0.02543248      -0.04390296
C        2.39153592       5.84010840       4.78053128       64       0.00373757       0.04008264       0.04614287
C        2.88787249      14.55281758       7.02459613       65      -0.00530988       0.03779539       0.04058682
C        2.86160589      13.36395637       6.30698671       66      -0.04335600       0.01038846      -0.06506324
C        3.44001644      10.64486463       4.93355273       67       0.05863304      -0.01120570      -0.00329106
C        3.30514414       9.40512265       4.30062969       68      -0.07497495       0.04864433      -0.02562679
C        2.88732583      18.81918939      14.45740612       69       0.01697969       0.09559095       0.05044051
C        3.00739395      18.76780041      15.84521865       70      -0.00912695      -0.08059259      -0.02045172
C        2.47861778      18.54876458      18.74544148       71      -0.02953941       0.04540852       0.00881070
C        2.47837174      18.59007894      20.13261015       72      -0.01208998       0.00035623       0.07731320
C        2.83112702      14.53289713       8.42233485       73      -0.00606350      -0.06669744       0.02887249
C        2.86360117      12.11295186       6.95172844       74      -0.02800338       0.04981515      -0.02196455
C        2.83277696      10.83481406       6.19965486       75       0.03313312       0.00491844       0.05370329
C        2.59005120       8.33491551       4.84922322       76      -0.00277950      -0.06590120      -0.02773847
C        2.44898713       7.06760853       4.10692769       77       0.01059462       0.00133309      -0.03766537
C        2.39155269       7.06721941       2.70397178       78      -0.00711688      -0.04185490       0.01948427
C        4.24997456      11.69175565       4.21297457       79       0.04728293      -0.00857620      -0.00081228
C        4.47294817      15.31920521      18.13959937       80       0.01666492      -0.02120784      -0.01236784
C        4.58913546      25.65299932       8.10282735       81       0.00978294      -0.03026003      -0.07676496
O        1.88261166      18.55422507       8.85725643       82      -0.07356592      -0.05808172      -0.03043726
O        1.88280566      18.27992165      11.63703712       83       0.00125753       0.01588102       0.02411696
O        1.88712302      16.01812488      10.01509881       84       0.06340237      -0.03722855      -0.06663196
O        3.75100306      19.18906456       9.97026276       85       0.06541701      -0.03183708       0.05451268
O        3.75784721      16.64675228       8.89765650       86       0.03106152       0.02497442      -0.01139370
O        3.75399936      17.00006925      11.63476690       87       0.02121824      -0.00423260      -0.00196872
88
Lattice="3.99236959 0.0 0.0 0.8599598991172991 23.548703631496117 0.0 0.8243038452566849 11.690836053048827 20.36677404914761" Properties=species:S:1:pos:R:3:spacegroup_kinds:I:1:forces:R:3 spacegroup="P 1" unit_cell=conventional occupancy="_JSON {\"0\": {\"Al\": 1}, \"1\": {\"H\": 1}, \"2\": {\"H\": 1}, \"3\": {\"H\": 1}, \"4\": {\"H\": 1}, \"5\": {\"H\": 1}, \"6\": {\"H\": 1}, \"7\": {\"H\": 1}, \"8\": {\"H\": 1}, \"9\": {\"H\": 1}, \"10\": {\"H\": 1}, \"11\": {\"H\": 1}, \"12\": {\"H\": 1}, \"13\": {\"H\": 1}, \"14\": {\"H\": 1}, \"15\": {\"H\": 1}, \"16\": {\"H\": 1}, \"17\": {\"H\": 1}, \"18\": {\"H\": 1}, \"19\": {\"H\": 1}, \"20\": {\"H\": 1}, \"21\": {\"H\": 1}, \"22\": {\"H\": 1}, \"23\": {\"H\": 1}, \"24\": {\"H\": 1}, \"25\": {\"H\": 1}, \"26\": {\"H\": 1}, \"27\": {\"H\": 1}, \"28\": {\"H\": 1}, \"29\": {\"H\": 1}, \"30\": {\"H\": 1}, \"31\": {\"H\": 1}, \"32\": {\"H\": 1}, \"33\": {\"H\": 1}, \"34\": {\"C\": 1}, \"35\": {\"C\": 1}, \"36\": {\"C\": 1}, \"37\": {\"C\": 1}, \"38\": {\"C\": 1}, \"39\": {\"C\": 1}, \"40\": {\"C\": 1}, \"41\": {\"C\": 1}, \"42\": {\"C\": 1}, \"43\": {\"C\": 1}, \"44\": {\"C\": 1}, \"45\": {\"C\": 1}, \"46\": {\"C\": 1}, \"47\": {\"C\": 1}, \"48\": {\"C\": 1}, \"49\": {\"C\": 1}, \"50\": {\"C\": 1}, \"51\": {\"C\": 1}, \"52\": {\"C\": 1}, \"53\": {\"C\": 1}, \"54\": {\"C\": 1}, \"55\": {\"C\": 1}, \"56\": {\"C\": 1}, \"57\": {\"C\": 1}, \"58\": {\"C\": 1}, \"59\": {\"C\": 1}, \"60\": {\"C\": 1}, \"61\": {\"C\": 1}, \"62\": {\"C\": 1}, \"63\": {\"C\": 1}, \"64\": {\"C\": 1}, \"65\": {\"C\": 1}, \"66\": {\"C\": 1}, \"67\": {\"C\": 1}, \"68\": {\"C\": 1}, \"69\": {\"C\": 1}, \"70\": {\"C\": 1}, \"71\": {\"C\": 1}, \"72\": {\"C\": 1}, \"73\": {\"C\": 1}, \"74\": {\"C\": 1}, \"75\": {\"C\": 1}, \"76\": {\"C\": 1}, \"77\": {\"C\": 1}, \"78\": {\"C\": 1}, \"79\": {\"C\": 1}, \"80\": {\"C\": 1}, \"81\": {\"C\": 1}, \"82\": {\"O\": 1}, \"83\": {\"O\": 1}, \"84\": {\"O\": 1}, \"85\": {\"O\": 1}, \"86\": {\"O\": 1}, \"87\": {\"O\": 1}}" energy=-609.5216064453125 free_energy=-609.5216064453125 stress="0.0002460686373524368 1.1506290320539847e-05 5.5569737014593557e-05 1.1506290320539847e-05 0.00034555557067506015 -7.827158697182313e-05 5.5569737014593557e-05 -7.827158697182313e-05 0.0003179036430083215" pbc="T T T"
Al       4.82093803      17.61548891      10.16729230        0      -0.01757059       0.01175566      -0.02285226
H        2.85388190      15.48493398      13.80013408        1       0.00114688      -0.00181195      -0.00469268
H        2.89533761      15.39568143      16.25412349        2       0.00742649       0.01869296       0.02777499
H        3.44168753       4.08298746       0.33390719        3      -0.01745418       0.00772394       0.00144239
H        2.60243372      19.80881365       6.41126783        4      -0.00308974       0.01637099       0.00670661
H        2.88813861      21.95505735       5.23063465        5      -0.00846859       0.02215048      -0.01026264
H        1.93685681      23.72120443       4.67370492        6      -0.01936062      -0.00520843       0.01066282
H        1.07821574       2.24871602       3.38891207        7      -0.03099333       0.00088752      -0.01672384
H        2.18215127       3.72420820       2.12752344        8      -0.01394836      -0.04242517      -0.01140717
H        3.11926445      21.81018167      10.17984493        9       0.00618234       0.00823452      -0.01971476
H        3.15253097      23.97844875       9.03002616       10       0.00639329      -0.00098767      -0.01774009
H        3.51119150       4.07329693       6.42318100       11      -0.00074476       0.00787245       0.00995205
H        2.73466050      13.27999203      10.17619015       12      -0.00763943      -0.00809404      -0.03545763
H        2.86468641      11.16640357       8.89630279       13      -0.00546925      -0.00203393      -0.01913676
H        1.61493763       9.89145085       7.70821998       14      -0.00031213       0.00441375      -0.00355321
H        1.40298766       7.73824774       6.55927282       15      -0.00266651       0.01531325      -0.01044684
H        2.42978853       5.83351193       5.87002661       16      -0.00212983       0.00256412      -0.00060007
H        2.91690015      15.51111985       6.50426428       17      -0.00468216      -0.00743599      -0.00485435
H        2.82324665      13.41650384       5.22008877       18       0.00371140      -0.03098143      -0.02576852
H        3.82344712       9.25900122       3.35085801       19      -0.02101707       0.00929009       0.01847458
H        2.86124377      19.78319475      13.94394659       20      -0.00504474      -0.04364491       0.02620446
H        3.10331515      19.69947336      16.40144479       21      -0.02126648      -0.00628863       0.02577710
H        1.93452939      19.31852240      18.19666383       22      -0.01023988       0.00008257      -0.02285295
H        1.11698847       7.69545110       0.28300334       23      -0.01336265      -0.00856997      -0.01807244
H        2.43249994       8.01433910       2.16435749       24      -0.00281606       0.02381763      -0.02503566
H        1.01604132      11.20594189       3.58456760       25      -0.01058840       0.06255534       0.00942609
H        0.76405917      12.37044625       4.90407407       26       0.01477965      -0.03658390       0.01302337
H        3.61877274      12.30264992       3.54648318       27       0.02500360      -0.01936538      -0.04782201
H        1.29724241      15.01055282      18.79991519       28       0.00262946      -0.03507276      -0.04293846
H        0.90162797      15.57056710      17.16173645       29       0.00781888       0.05353778       0.02739681
H        3.81295789      14.44648097      18.00103998       30       0.04381632       0.00686119       0.04955145
H        1.38100647      26.41491906       8.02438466       31       0.03352597      -0.01805433       0.06482355
H        1.06402073      24.69583088       8.34494148       32       0.02609127       0.01170196      -0.02735339
H        3.93728345      25.93652509       8.94266283       33       0.04136462       0.04895349       0.00876531
C        2.82382668      17.64994263      12.22110482       34      -0.06841504       0.04860045       0.01471341
C        2.82260564      15.82018487       9.16773688       35       0.01913543      -0.02249408       0.01522386
C        2.82385649      19.37740717       9.10999774       36       0.02084765      -0.05650520       0.05489722
C        2.88953260      16.40841789      14.37773585       37       0.01319567       0.02307658      -0.08827260
C        2.93905742      16.36539599      15.76414803       38      -0.07389706      -0.02263415      -0.00552326
C        3.73457244      16.47949073      18.75626015       39       0.00150299       0.07583297      -0.04242390
C        3.71795666      16.54215545      20.15276300       40      -0.05590193      -0.06810991      -0.02910052
C        2.75462599      20.72719564       6.97987928       41       0.01308540       0.00378199      -0.01345510
C        2.89556308      21.94619955       6.32001179       42      -0.00107901      -0.03220355       0.03300290
C        2.50500001      24.56876520       5.05200745       43       0.02243409       0.04890363      -0.03072693
C        2.50245739      25.74812302       4.31893373       44       0.00712831      -0.02132871       0.06619072
C        2.85555780      17.63954263      13.70991742       45      -0.00539539      -0.13210699       0.00722486
C        3.02600156      17.53970452      16.53489704       46      -0.03577767       0.01484539       0.03466271
C        3.09210694      17.50683125      18.01762277       47       0.08369958      -0.00029777      -0.00219536
C        2.27444807       5.87874111       0.50438094       48      -0.01898311       0.04671644       0.00123243
C        2.29377273       5.87124237       1.97892498       49       0.01246694       0.01796442       0.02549809
C        2.24878354       4.65821849       2.68414463       50       0.00323590       0.04509890       0.00604707
C        3.04495724      21.85183237       9.09277811       51      -0.01526722      -0.00723359       0.08010374
C        3.09498656      23.07201178       8.43358256       52      -0.04746336       0.03606184      -0.02667851
C        3.81893992      25.59734238       6.80471235       53       0.02354025      -0.01683323      -0.03446200
C        3.79866108      26.77308144       6.04877473       54      -0.07502133      -0.00689267       0.01909065
C        2.78089508      13.30173351       9.08598490       55       0.02647228      -0.01712151       0.01187687
C        2.83805245      12.11490186       8.35945421       56      -0.01960276       0.02852619       0.04527131
C        2.13406433       9.74522820       6.76252285       57       0.04591481      -0.03838881      -0.04462022
C        2.01297701       8.52440570       6.11342847       58      -0.04838927       0.00275408       0.03067813
C        2.86282094      20.66577574       8.37383588       59       0.01529160       0.04705367      -0.02948085
C        3.06123309      23.15585533       7.02683741       60      -0.03403792      -0.03219264       0.03240746
C        3.14632363      24.45026325       6.30525626       61       0.06480473       0.02670132       0.01112700
C        2.28936319       3.34316347       4.81496752       62      -0.01464509      -0.00196731      -0.03315746
C        2.30014248       4.62432191       4.08417159       63       0.02235604       0.01367846       0.02975687
C        2.39128107       5.84065894       4.78029340       64      -0.00487914       0.05119339      -0.03127770
C        2.88620040      14.55331045       7.02379767       65       0.00644540       0.02851854       0.00171329
C        2.86086570      13.36433617       6.30485694       66      -0.05336020       0.05803480       0.01029520
C        3.43885352      10.64572250       4.93291581       67       0.08608603      -0.02044868      -0.04576511
C        3.30343783       9.40564629       4.29930560       68      -0.06565532       0.05009921      -0.01883824
C        2.88701999      18.81950853      14.45711470       69       0.00719259       0.12057677      -0.01551241
C        3.00549632      18.76811564      15.84430140       70       0.01713744      -0.04422812      -0.01252866
C        2.47746572      18.54998775      18.74357104       71       0.00682567      -0.01086052       0.09603963
C        2.47720530      18.59015308      20.13236448       72       0.00535139      -0.02411743      -0.00524470
C        2.83146424      14.53204471       8.42180777       73      -0.03099460       0.04241287      -0.00894865
C        2.86157270      12.11456432       6.95060182       74      -0.00039621      -0.00872262      -0.02092938
C        2.83356971      10.83562299       6.19893476       75      -0.02168635      -0.02111447       0.08038978
C        2.58963261       8.33419709       4.84746401       76      -0.00383385       0.00493115       0.00561291
C        2.44851133       7.06879408       4.10521836       77       0.00514242      -0.07638314       0.00334895
C        2.39040646       7.06786398       2.70277881       78      -0.00799550      -0.06110336      -0.00264281
C        4.24945142      11.69280821       4.21123055       79       0.02479473      -0.02391638       0.00627978
C        4.47102133      15.32010485      18.13771364       80       0.04300818      -0.05068778       0.00088662
C        4.58844239      25.65333699       8.10148784       81      -0.01778963      -0.02894041      -0.05331732
O        1.88013219      18.55512447       8.85669982       82       0.00742292       0.01056238      -0.02668007
O        1.88057664      18.28150372      11.63463560       83       0.05243509      -0.02516177       0.06555479
O        1.88683567      16.01845284      10.01463613       84       0.00533854      -0.02055016      -0.03176287
O        3.75005118      19.18956010       9.97122030       85      -0.00470649      -0.00215973      -0.02030036
O        3.75633029      16.64740527       8.89538669       86       0.01180579       0.01727012       0.01094158
O        3.75227924      17.00113732      11.63422885       87       0.05005091      -0.03471129      -0.03891790
88
Lattice="3.99236959 0.0 0.0 0.8599598991172991 23.548703631496117 0.0 0.8243038452566849 11.690836053048827 20.36677404914761" Properties=species:S:1:pos:R:3:spacegroup_kinds:I:1:forces:R:3 spacegroup="P 1" unit_cell=conventional occupancy="_JSON {\"0\": {\"Al\": 1}, \"1\": {\"H\": 1}, \"2\": {\"H\": 1}, \"3\": {\"H\": 1}, \"4\": {\"H\": 1}, \"5\": {\"H\": 1}, \"6\": {\"H\": 1}, \"7\": {\"H\": 1}, \"8\": {\"H\": 1}, \"9\": {\"H\": 1}, \"10\": {\"H\": 1}, \"11\": {\"H\": 1}, \"12\": {\"H\": 1}, \"13\": {\"H\": 1}, \"14\": {\"H\": 1}, \"15\": {\"H\": 1}, \"16\": {\"H\": 1}, \"17\": {\"H\": 1}, \"18\": {\"H\": 1}, \"19\": {\"H\": 1}, \"20\": {\"H\": 1}, \"21\": {\"H\": 1}, \"22\": {\"H\": 1}, \"23\": {\"H\": 1}, \"24\": {\"H\": 1}, \"25\": {\"H\": 1}, \"26\": {\"H\": 1}, \"27\": {\"H\": 1}, \"28\": {\"H\": 1}, \"29\": {\"H\": 1}, \"30\": {\"H\": 1}, \"31\": {\"H\": 1}, \"32\": {\"H\": 1}, \"33\": {\"H\": 1}, \"34\": {\"C\": 1}, \"35\": {\"C\": 1}, \"36\": {\"C\": 1}, \"37\": {\"C\": 1}, \"38\": {\"C\": 1}, \"39\": {\"C\": 1}, \"40\": {\"C\": 1}, \"41\": {\"C\": 1}, \"42\": {\"C\": 1}, \"43\": {\"C\": 1}, \"44\": {\"C\": 1}, \"45\": {\"C\": 1}, \"46\": {\"C\": 1}, \"47\": {\"C\": 1}, \"48\": {\"C\": 1}, \"49\": {\"C\": 1}, \"50\": {\"C\": 1}, \"51\": {\"C\": 1}, \"52\": {\"C\": 1}, \"53\": {\"C\": 1}, \"54\": {\"C\": 1}, \"55\": {\"C\": 1}, \"56\": {\"C\": 1}, \"57\": {\"C\": 1}, \"58\": {\"C\": 1}, \"59\": {\"C\": 1}, \"60\": {\"C\": 1}, \"61\": {\"C\": 1}, \"62\": {\"C\": 1}, \"63\": {\"C\": 1}, \"64\": {\"C\": 1}, \"65\": {\"C\": 1}, \"66\": {\"C\": 1}, \"67\": {\"C\": 1}, \"68\": {\"C\": 1}, \"69\": {\"C\": 1}, \"70\": {\"C\": 1}, \"71\": {\"C\": 1}, \"72\": {\"C\": 1}, \"73\": {\"C\": 1}, \"74\": {\"C\": 1}, \"75\": {\"C\": 1}, \"76\": {\"C\": 1}, \"77\": {\"C\": 1}, \"78\": {\"C\": 1}, \"79\": {\"C\": 1}, \"80\": {\"C\": 1}, \"81\": {\"C\": 1}, \"82\": {\"O\": 1}, \"83\": {\"O\": 1}, \"84\": {\"O\": 1}, \"85\": {\"O\": 1}, \"86\": {\"O\": 1}, \"87\": {\"O\": 1}}" energy=-609.5223999023438 free_energy=-609.5223999023438 stress="0.00025555159663781524 1.0941978871414904e-05 -1.876245005405508e-05 1.0941978871414904e-05 0.00044006368261761963 5.148479249328375e-05 -1.876245005405508e-05 5.148479249328375e-05 0.0002806111006066203" pbc="T T T"
Al       4.81850900      17.61566724      10.16519453        0      -0.00076973       0.01787302       0.00563070
H        2.85339196      15.48520182      13.79964114        1       0.00066990      -0.03366114      -0.02863154
H        2.89382256      15.39619886      16.25375407        2       0.00631745       0.02297224       0.02058169
H        3.44076816       4.08374128       0.33289583        3      -0.01094095      -0.00468439       0.00284123
H        2.60159668      19.80940137       6.41091673        4      -0.00588901       0.00706939      -0.00575697
H        2.88658021      21.95608712       5.22946855        5      -0.00560108       0.01821639      -0.00373048
H        1.93587272      23.72127584       4.67293132        6       0.00295170       0.02753858       0.01955770
H        1.07647450       2.24967579       3.38786394        7      -0.01902424      -0.00481858      -0.00012384
H        2.18123583       3.72432083       2.12625730        8      -0.01320672      -0.02896267      -0.00825503
H        3.11829645      21.81116576      10.17898202        9       0.00578231       0.00594751       0.01205443
H        3.15145446      23.97894661       9.02923174       10       0.00478380      -0.01002143      -0.03264396
H        3.51016971       4.07397308       6.42283760       11      -0.01069665       0.00769766       0.00658167
H        2.73333759      13.27964603      10.17378892       12      -0.00846413       0.00187525       0.00742488
H        2.86396338      11.16677449       8.89561070       13      -0.00525555       0.00178042      -0.02058938
H        1.61450613       9.89183757       7.70769909       14       0.01218608      -0.00295210      -0.02917454
H        1.40207444       7.73847167       6.55814493       15       0.00767270       0.02271358      -0.01353756
H        2.42950294       5.83374592       5.86974035       16      -0.00461230       0.00735332      -0.03326884
H        2.91620804      15.51184306       6.50362784       17      -0.00463483       0.02502453      -0.02787520
H        2.82321807      13.41677303       5.21762724       18       0.00181245      -0.02964287      -0.00433022
H        3.82207000       9.25966679       3.34987554       19      -0.01019865       0.00805228      -0.00963254
H        2.85899485      19.78353659      13.94274430       20      -0.00088186      -0.02991080       0.02153109
H        3.10220173      19.70001244      16.40154861       21      -0.02147295      -0.00227273       0.02202100
H        1.93394166      19.31920196      18.19515340       22       0.00995733      -0.02628681      -0.00113842
H        1.11501162       7.69600413       0.28204939       23      -0.01245813      -0.00314395      -0.02223984
H        2.43113924       8.01465052       2.16326140       24       0.00075345      -0.00386319      -0.00521389
H        1.01440291      11.20603236       3.58165905       25      -0.01986402       0.06872454       0.02718040