80
Lattice="4.59958151 0.0 0.0 1.779812681753393e-05 11.906100989986697 0.0 -1.213695250936878 4.262968201596699e-05 15.345363083313599" Properties=species:S:1:pos:R:3:spacegroup_kinds:I:1:forces:R:3 spacegroup="P 1" unit_cell=conventional occupancy="_JSON {\"0\": {\"Zn\": 1}, \"1\": {\"Zn\": 1}, \"2\": {\"Zn\": 1}, \"3\": {\"Zn\": 1}, \"4\": {\"H\": 1}, \"5\": {\"H\": 1}, \"6\": {\"H\": 1}, \"7\": {\"H\": 1}, \"8\": {\"H\": 1}, \"9\": {\"H\": 1}, \"10\": {\"H\": 1}, \"11\": {\"H\": 1}, \"12\": {\"H\": 1}, \"13\": {\"H\": 1}, \"14\": {\"H\": 1}, \"15\": {\"H\": 1}, \"16\": {\"H\": 1}, \"17\": {\"H\": 1}, \"18\": {\"H\": 1}, \"19\": {\"H\": 1}, \"20\": {\"H\": 1}, \"21\": {\"H\": 1}, \"22\": {\"H\": 1}, \"23\": {\"H\": 1}, \"24\": {\"H\": 1}, \"25\": {\"H\": 1}, \"26\": {\"H\": 1}, \"27\": {\"H\": 1}, \"28\": {\"C\": 1}, \"29\": {\"C\": 1}, \"30\": {\"C\": 1}, \"31\": {\"C\": 1}, \"32\": {\"C\": 1}, \"33\": {\"C\": 1}, \"34\": {\"C\": 1}, \"35\": {\"C\": 1}, \"36\": {\"C\": 1}, \"37\": {\"C\": 1}, \"38\": {\"C\": 1}, \"39\": {\"C\": 1}, \"40\": {\"C\": 1}, \"41\": {\"C\": 1}, \"42\": {\"C\": 1}, \"43\": {\"C\": 1}, \"44\": {\"C\": 1}, \"45\": {\"C\": 1}, \"46\": {\"C\": 1}, \"47\": {\"C\": 1}, \"48\": {\"C\": 1}, \"49\": {\"C\": 1}, \"50\": {\"C\": 1}, \"51\": {\"C\": 1}, \"52\": {\"C\": 1}, \"53\": {\"C\": 1}, \"54\": {\"C\": 1}, \"55\": {\"C\": 1}, \"56\": {\"C\": 1}, \"57\": {\"C\": 1}, \"58\": {\"C\": 1}, \"59\": {\"C\": 1}, \"60\": {\"C\": 1}, \"61\": {\"C\": 1}, \"62\": {\"C\": 1}, \"63\": {\"C\": 1}, \"64\": {\"O\": 1}, \"65\": {\"O\": 1}, \"66\": {\"O\": 1}, \"67\": {\"O\": 1}, \"68\": {\"O\": 1}, \"69\": {\"O\": 1}, \"70\": {\"O\": 1}, \"71\": {\"O\": 1}, \"72\": {\"O\": 1}, \"73\": {\"O\": 1}, \"74\": {\"O\": 1}, \"75\": {\"O\": 1}, \"76\": {\"O\": 1}, \"77\": {\"O\": 1}, \"78\": {\"O\": 1}, \"79\": {\"O\": 1}}" energy=-540.4431762695312 free_energy=-540.4431762695312 stress="-0.0036051548086106777 -0.00013610547466669232 -0.0014343641232699156 -0.00013610547466669232 -0.0036922015715390444 -0.000326272303937003 -0.0014343641232699156 -0.000326272303937003 -0.003035568865016103" pbc="T T T"
Zn       0.84240822       1.52771865       7.57944140        0      -0.00524931      -0.10594495      -0.03317109
Zn       3.15072415       7.48299793       0.09122884        1      -0.00573918      -0.13871582       0.07054932
Zn       2.54641561      10.37615585       7.76342193        2      -0.04395267       0.10802649       0.07361585
Zn       0.23252187       4.42339219      15.25081459        3       0.00972563       0.10830045      -0.00873026
H        0.30461918       4.88270085       7.08471081        4      -0.02272492       0.02187773      -0.01804471
H        3.68429576      10.83354402       0.58930260        5       0.05539217       0.01474372       0.04319340
H        3.08082991       7.02286096       8.26181777        6      -0.00548931       0.00166949      -0.09499408
H       -0.29807037       1.07127958      14.75480001        7      -0.03159329      -0.01921028       0.02447325
H        0.30279431       6.80594075       3.23034539        8       0.06491096       0.02175167       0.00960380
H        3.68756845       0.85090914       4.44244470        9      -0.09584011       0.08705615       0.00319555
H        3.08195468       5.09929150      12.11304076       10      -0.06637568      -0.02126813       0.00250547
H       -0.30421849      11.05122050      10.90329090       11       0.08651640      -0.06221010      -0.01109271
H        2.37011250       3.40886048       3.94479502       12      -0.03980385       0.00766991       0.02214641
H        1.62235971       9.36417262       3.72607645       13       0.09208198      -0.04802892       0.02318150
H        1.01727453       8.49661297      11.39912220       14       0.06909214      -0.00414349       0.02219166
H        1.76264289       2.54346919      11.61918336       15      -0.12704962       0.05532418      -0.03933822
H        0.87004840       8.02690179       5.76998383       16       0.00124720      -0.04590680       0.01810013
H        3.12203052       2.07219489       1.90123956       17       0.06707798       0.08085556       0.01390397
H        2.51810146       3.87980479       9.57335403       18       0.00339069       0.02819655       0.01172904
H        0.26463383       9.82841174      13.44430489       19       0.01060675       0.13094395       0.01116661
H        2.25188165       7.11954234       5.12457470       20      -0.02067796       0.06274217       0.04968953
H        1.73997849       1.17037758       2.54390386       21      -0.14281714       0.07180944       0.09619753
H        1.13004686       4.78427559      10.22169536       22       0.11652771      -0.05632766      -0.08408818
H        1.64383352      10.73509791      12.80182103       23       0.11877338      -0.05853794      -0.05951402
H        1.66594713       6.80960024       6.77272069       24       0.07667933      -0.02134974       0.16995792
H        2.32736080       0.86033842       0.89866310       25      -0.05782982       0.01665819      -0.02788933
H        1.71840555       5.09263065       8.57041377       26      -0.02565143       0.00354947      -0.00751057
H        1.06221810      11.04873702      14.44892169       27       0.04023781      -0.00967851       0.04519150
C        3.12153406       2.97708408       6.53684248       28       0.03870295      -0.00237995       0.06971353
C        0.87176480       8.93001519       1.13372245       29      -0.01371423       0.08272687       0.17778039
C        0.26254847       8.93000050       8.81198663       30      -0.00792927       0.06745350      -0.18508701
C        2.51201827       2.97809022      14.20786468       31       0.12969868      -0.13042426       0.04946771
C       -0.03999233       4.95932154       6.05274124       32       0.03039516       0.08405066       0.01921988
C        4.03503501      10.91092375       1.62020529       33      -0.14911185       0.11131450      -0.13000542
C        3.42548608       6.94781706       9.28994495       34       0.07515332      -0.05009645       0.22325608
C       -0.64976128       0.99274410      13.72658247       35       0.02431442       0.04733735       0.00009606
C       -0.05021074       6.03078457       3.91054449       36       0.02666912       0.14375632      -0.00669862
C        4.04042299       0.08218504       3.75830852       37       0.11557348      -0.06276194       0.07136387
C        3.43448742       5.87496649      11.43378996       38      -0.02560281      -0.09222265      -0.04625580
C       -0.65492421      11.82340184      11.58513222       39      -0.11282383       0.12215494       0.00402026
C        3.12675347       4.10609177       4.29809248       40       0.06545515       0.09545548      -0.16294883
C        0.86507808      10.05794596       3.37608776       41      -0.13881257       0.19684413       0.08836553
C        0.26202446       7.79727775      11.05072566       42      -0.12032345       0.05371242      -0.07718134
C        2.51554339       1.84649243      11.96916174       43       0.25110877      -0.11344223       0.09848553
C        0.41401153       5.99403491       5.22905793       44      -0.18187051      -0.23687774       0.06076008
C        3.57869713       0.03631041       2.44217197       45      -0.02156178       0.09700692      -0.05188254
C        2.97090623       5.91164243      10.11493365       46       0.25183365       0.32679144      -0.03974114
C       -0.19082351      11.86968138      12.90183938       47      -0.09123372      -0.03624541       0.06189768
C        3.62442338       4.02057731       5.59826224       48       0.01775074      -0.04190940      -0.03482386
C        0.36687352       9.97500559       2.07659122       49       0.11449327      -0.21623886      -0.07077445
C       -0.23711605       7.88894389       9.74912948       50      -0.18113938      -0.15778419       0.01778823
C        3.01617815       1.93435558      13.27245504       51      -0.01539624      -0.04104681      -0.17077126
C        1.35190448       7.03880676       5.75318720       52       0.12855020       0.18180464      -0.22532639
C        2.63741742       1.09088331       1.92462440       53       0.05469143      -0.15756550      -0.13313177
C        2.03555034       4.86695569       9.59583613       54      -0.32316095      -0.20627606       0.00862372
C        0.74745319      10.81877531      13.42511426       55      -0.04082781      -0.12295414       0.01828387
C        3.09494855       5.22981367       2.05316285       56       0.17340384       0.17823869      -0.21214280
C        0.89517023      11.18383166       5.62075314       57       0.01185489       0.01246027      -0.04243153
C        0.28848088       6.67482988      13.29577380       58      -0.10107633      -0.02598523      -0.08574340
C        2.48838003       0.71963578       9.72231361       59       0.17566442      -0.02344500       0.09976831
C        3.60852983       5.10633781       3.44091329       60      -0.06009129      -0.17317198       0.20639971
C        0.38226170      11.06168916       4.22639407       61       0.11145896      -0.15921833       0.03696273
C       -0.22639964       6.80267554      11.90154632       62       0.10813166      -0.00264885       0.10724741
C        3.00375998       0.84876386      11.11900852       63      -0.08579649      -0.05529203      -0.13833301
O        3.80275339       2.65950508       7.57285249       64      -0.00518692       0.12607056      -0.06134723
O        0.19064871       8.61004987       0.10401902       65      -0.09199038       0.09691897      -0.13189973
O       -0.41844096       9.25083765       7.77306216       66       0.11525354      -0.19013959       0.18443647
O        3.19365845       3.29361404      15.24193617       67       0.04803632      -0.06785218       0.04972456
O        1.97492417       2.47994541       6.27040271       68      -0.05045022       0.05469571      -0.05677728
O        2.01744934       8.43290092       1.40181535       69       0.10269070       0.05318742       0.05853086
O        1.41214071       9.42081150       9.07773180       70       0.04736260      -0.00612161       0.00332173
O        1.36600497       3.46954232      13.94316266       71      -0.19888774       0.03439496      -0.08872196
O        2.05309234       4.55620476       1.74314213       72      -0.06938557      -0.03784651      -0.00471520
O        1.94060290      10.50929444       5.93005459       73      -0.06692012       0.02783486      -0.06342322
O        1.33295442       7.34989605      13.60056561       74      -0.00722888      -0.02289311       0.02224916
O        1.44525490       1.39600174       9.41712027       75      -0.00331311      -0.03434645      -0.03370027
O        3.73119049       5.99962923       1.25085772       76      -0.15239686      -0.12668513       0.11800970
O        0.26341266       0.04723603       6.41855040       77       0.03017995      -0.01095629       0.01757466
O       -0.34584352       5.90440471      14.09262036       78       0.09612704       0.07493046      -0.02312186
O        3.12604878      11.85766327       8.92342046       79      -0.14978856       0.10583478       0.07742002
80
Lattice="4.59958151 0.0 0.0 1.779812681753393e-05 11.906100989986697 0.0 -1.213695250936878 4.262968201596699e-05 15.345363083313599" Properties=species:S:1:pos:R:3:spacegroup_kinds:I:1:forces:R:3 spacegroup="P 1" unit_cell=conventional occupancy="_JSON {\"0\": {\"Zn\": 1}, \"1\": {\"Zn\": 1}, \"2\": {\"Zn\": 1}, \"3\": {\"Zn\": 1}, \"4\": {\"H\": 1}, \"5\": {\"H\": 1}, \"6\": {\"H\": 1}, \"7\": {\"H\": 1}, \"8\": {\"H\": 1}, \"9\": {\"H\": 1}, \"10\": {\"H\": 1}, \"11\": {\"H\": 1}, \"12\": {\"H\": 1}, \"13\": {\"H\": 1}, \"14\": {\"H\": 1}, \"15\": {\"H\": 1}, \"16\": {\"H\": 1}, \"17\": {\"H\": 1}, \"18\": {\"H\": 1}, \"19\": {\"H\": 1}, \"20\": {\"H\": 1}, \"21\": {\"H\": 1}, \"22\": {\"H\": 1}, \"23\": {\"H\": 1}, \"24\": {\"H\": 1}, \"25\": {\"H\": 1}, \"26\": {\"H\": 1}, \"27\": {\"H\": 1}, \"28\": {\"C\": 1}, \"29\": {\"C\": 1}, \"30\": {\"C\": 1}, \"31\": {\"C\": 1}, \"32\": {\"C\": 1}, \"33\": {\"C\": 1}, \"34\": {\"C\": 1}, \"35\": {\"C\": 1}, \"36\": {\"C\": 1}, \"37\": {\"C\": 1}, \"38\": {\"C\": 1}, \"39\": {\"C\": 1}, \"40\": {\"C\": 1}, \"41\": {\"C\": 1}, \"42\": {\"C\": 1}, \"43\": {\"C\": 1}, \"44\": {\"C\": 1}, \"45\": {\"C\": 1}, \"46\": {\"C\": 1}, \"47\": {\"C\": 1}, \"48\": {\"C\": 1}, \"49\": {\"C\": 1}, \"50\": {\"C\": 1}, \"51\": {\"C\": 1}, \"52\": {\"C\": 1}, \"53\": {\"C\": 1}, \"54\": {\"C\": 1}, \"55\": {\"C\": 1}, \"56\": {\"C\": 1}, \"57\": {\"C\": 1}, \"58\": {\"C\": 1}, \"59\": {\"C\": 1}, \"60\": {\"C\": 1}, \"61\": {\"C\": 1}, \"62\": {\"C\": 1}, \"63\": {\"C\": 1}, \"64\": {\"O\": 1}, \"65\": {\"O\": 1}, \"66\": {\"O\": 1}, \"67\": {\"O\": 1}, \"68\": {\"O\": 1}, \"69\": {\"O\": 1}, \"70\": {\"O\": 1}, \"71\": {\"O\": 1}, \"72\": {\"O\": 1}, \"73\": {\"O\": 1}, \"74\": {\"O\": 1}, \"75\": {\"O\": 1}, \"76\": {\"O\": 1}, \"77\": {\"O\": 1}, \"78\": {\"O\": 1}, \"79\": {\"O\": 1}}" energy=-540.43212890625 free_energy=-540.43212890625 stress="-0.003362641204148531 -0.00010081260552396998 -0.0016777972923591733 -0.00010081260552396998 -0.0038092979229986668 -0.00043158058542758226 -0.0016777972923591733 -0.00043158058542758226 -0.0036403248086571693" pbc="T T T"
Zn       0.84206687       1.53015211       7.58010529        0       0.01234515      -0.11949138      -0.06587485
Zn       3.15018546       7.48166384       0.09009479        1       0.00575341      -0.14644617       0.07910854
Zn       2.54761245      10.37601505       7.76622585        2      -0.06430878       0.10906544       0.03262910
Zn       0.23456839       4.42417686      15.24874353        3       0.02308303       0.11038719       0.02884190
H        0.30716477       4.88052459       7.08440306        4      -0.05550998       0.03333819      -0.08759339
H        3.68214057      10.83363852       0.59155277        5       0.02487177       0.02426756      -0.04463962
H        3.08256400       7.02082292       8.26456097        6      -0.04368179       0.03170175      -0.21623228
H       -0.30054001       1.07228532      14.75234422        7       0.04498259       0.00286833       0.22644030
H        0.30085168       6.80711051       3.22772768        8       0.03795445      -0.07753304       0.10981707
H        3.68593403       0.84791005       4.44230716        9      -0.09182366       0.06680277      -0.02231261
H        3.08115035       5.10062336      12.11173295       10      -0.05423076      -0.01094517      -0.02694269
H       -0.30262389      11.05013579      10.90529202       11       0.08614338      -0.07198997      -0.03586817
H        2.37056328       3.40952378       3.94448117       12      -0.00157362       0.02975559       0.04934470
H        1.62019853       9.36567090       3.72586714       13       0.20849782      -0.15715367       0.07145311
H        1.01810357       8.49540627      11.39704568       14       0.12478532       0.04654224       0.05357876
H        1.76163128       2.54560829      11.62027746       15      -0.13142729       0.03599957      -0.05918284
H        0.87223720       8.02789903       5.76905847       16      -0.01714434      -0.02345195       0.02106984
H        3.12238668       2.07232042       1.89965961       17       0.04231254       0.02314119       0.03071883
H        2.51591311       3.88158096       9.57324149       18       0.04551065      -0.01188806       0.00879120
H        0.26735582       9.82548181      13.44520477       19       0.03456356       0.21383834      -0.00435702
H        2.25433056       7.11856462       5.12508940       20      -0.04394522       0.06391784       0.06241700
H        1.73824602       1.16821228       2.54378104       21      -0.09399657       0.07605343       0.04478416
H        1.12736793       4.78440943      10.22316416       22       0.26853931      -0.03241912      -0.18426996
H        1.64665390      10.73602454      12.80335474       23       0.06271532      -0.04326081      -0.04487979
H        1.66676491       6.80703212       6.77447270       24       0.04497309       0.00976827       0.08380173
H        2.32977933       0.86314994       0.89762668       25      -0.08438377      -0.02624997      -0.09883071
H        1.71664267       5.09085386       8.57292412       26      -0.05115077       0.04638745      -0.14255801
H        1.06203540      11.04722786      14.44757833       27       0.04063232       0.01344324       0.07953303
C        3.12305698       2.97962367       6.53698535       28      -0.13052140      -0.20614524       0.15059717
C        0.87441849       8.92863021       1.13251661       29      -0.10560720       0.17257915       0.24844627
C        0.26181423       8.93035643       8.80999016       30       0.02643351      -0.04009703       0.05497286
C        2.51428935       2.97956971      14.20565661       31       0.08718870      -0.12729529       0.08742465
C       -0.04185544       4.95743103       6.05142832       32       0.13572118       0.11802631       0.12999788
C        4.03313432      10.91376751       1.61908852       33       0.01054579      -0.09072648      -0.04327562
C        3.42511495       6.95013457       9.28969786       34       0.06487280      -0.11126666       0.30660439
C       -0.64752534       0.99483293      13.72952202       35      -0.16473421       0.02871589      -0.37041777
C       -0.04793568       6.02839088       3.91318770       36      -0.07523914       0.21938081      -0.35165524
C        4.03862321       0.07935804       3.75626384       37       0.20906861      -0.06124634       0.30545184
C        3.43725685       5.87486970      11.43101723       38      -0.09688792      -0.14281552       0.02722007
C       -0.65511788      11.82397231      11.58322061       39      -0.06740113       0.11702222       0.12492074
C        3.12960334       4.10575807       4.30005654       40      -0.08388763      -0.00361186      -0.27332371
C        0.86630063      10.05673886       3.37860292       41      -0.30924562       0.30076042      -0.12074982
C        0.26413755       7.79705375      11.05199782       42      -0.25808045      -0.05420953      -0.12327129
C        2.51299063       1.84535591      11.96726727       43       0.29923558      -0.10012694       0.12690586
C        0.41345561       5.99185768       5.22611393       44      -0.06421669      -0.16294436       0.29260063
C        3.57820264       0.03345256       2.44448962       45      -0.14395432       0.23319247      -0.21748218
C        2.97110232       5.91458493      10.11337317       46       0.25131056       0.25715739      -0.02011832
C       -0.19220195      11.86875101      12.90306394       47      -0.14299442       0.08635043       0.02809114
C        3.62469904       4.01774723       5.59993512       48       0.07240570       0.04921176      -0.06771004
C        0.36594040       9.97605713       2.07555190       49       0.18948373      -0.22454998       0.00204396
C       -0.23958095       7.88790040       9.75089748       50      -0.02163292      -0.01505944       0.01063439
C        3.01325870       1.93575645      13.27029465       51       0.16171448      -0.16037130      -0.10798277
C        1.35247807       7.04033895       5.75277055       52       0.14283873       0.03703459      -0.18350406
C        2.63699740       1.08909224       1.92250650       53       0.07601145      -0.08253556       0.03007331
C        2.03782896       4.86902102       9.59312989       54      -0.49861899      -0.22840101       0.26016590
C        0.74649696      10.82093186      13.42427540       55       0.01535507      -0.28847969       0.00698718
C        3.09505488       5.22898133       2.05596593       56       0.11564913       0.17316177      -0.34604988
C        0.89415405      11.18134849       5.62297906       57       0.07488575       0.05453525      -0.05483314
C        0.28689667       6.67676081      13.29572786       58       0.01988775      -0.03867856      -0.05452037
C        2.48557801       0.71909159       9.72165142       59       0.33108979      -0.09658398       0.09703407
C        3.60731893       5.10391780       3.44116036       60       0.08242350      -0.07977997       0.30241552
C        0.38353860      11.06000374       4.22772732       61       0.02472915      -0.12577803       0.01647572
C       -0.22623894       6.80083500      11.90360452       62       0.16712643       0.13404587      -0.01785244
C        3.00590137       0.84921776      11.11600665       63      -0.17869729      -0.01511684      -0.09601417
O        3.80466524       2.65904320       7.57454300       64      -0.12075923       0.17335656      -0.16457357
O        0.18841589       8.61193173       0.10523087       65      -0.04609494       0.06500009      -0.15469977
O       -0.41852474       9.24879193       7.77603307       66      -0.00384030      -0.13376491      -0.01840235
O        3.19631344       3.29648937      15.23955788       67       0.03546566      -0.08305897       0.01909455
O        1.97200792       2.48252445       6.26817598       68       0.16069049       0.13096476       0.02972237
O        2.01909609       8.43023578       1.40216770       69       0.06812415       0.06335946       0.03783576
O        1.40935799       9.42356624       9.07736234       70       0.09914174      -0.00726941       0.02097100
O        1.36587354       3.46669974      13.94428396       71      -0.21432284       0.06419629      -0.09777904
O        2.05288085       4.55591674       1.74434595       72      -0.07660310      -0.04811443       0.00615037
O        1.94281405      10.50866164       5.92973563       73      -0.11540751       0.03805652      -0.03086026
O        1.33479152       7.34839847      13.60060587       74      -0.03760486      -0.00088774      -0.01724286
O        1.44602161       1.39522470       9.41530737       75      -0.09733440       0.02323287      -0.03371202
O        3.72880212       5.99743588       1.24922532       76      -0.12755214      -0.13175429       0.18059769
O        0.26486760       0.04791699       6.42006685       77       0.03151373      -0.05230236       0.00512227
O       -0.34299400       5.90640454      14.09325039       78       0.01407465       0.02903658       0.02580144
O        3.12463207      11.85512859       8.92438790       79      -0.16023695       0.12814614       0.08288431
80
Lattice="4.59958151 0.0 0.0 1.779812681753393e-05 11.906100989986697 0.0 -1.213695250936878 4.262968201596699e-05 15.345363083313599" Properties=species:S:1:pos:R:3:spacegroup_kinds:I:1:forces:R:3 spacegroup="P 1" unit_cell=conventional occupancy="_JSON {\"0\": {\"Zn\": 1}, \"1\": {\"Zn\": 1}, \"2\": {\"Zn\": 1}, \"3\": {\"Zn\": 1}, \"4\": {\"H\": 1}, \"5\": {\"H\": 1}, \"6\": {\"H\": 1}, \"7\": {\"H\": 1}, \"8\": {\"H\": 1}, \"9\": {\"H\": 1}, \"10\": {\"H\": 1}, \"11\": {\"H\": 1}, \"12\": {\"H\": 1}, \"13\": {\"H\": 1}, \"14\": {\"H\": 1}, \"15\": {\"H\": 1}, \"16\": {\"H\": 1}, \"17\": {\"H\": 1}, \"18\": {\"H\": 1}, \"19\": {\"H\": 1}, \"20\": {\"H\": 1}, \"21\": {\"H\": 1}, \"22\": {\"H\": 1}, \"23\": {\"H\": 1}, \"24\": {\"H\": 1}, \"25\": {\"H\": 1}, \"26\": {\"H\": 1}, \"27\": {\"H\": 1}, \"28\": {\"C\": 1}, \"29\": {\"C\": 1}, \"30\": {\"C\": 1}, \"31\": {\"C\": 1}, \"32\": {\"C\": 1}, \"33\": {\"C\": 1}, \"34\": {\"C\": 1}, \"35\": {\"C\": 1}, \"36\": {\"C\": 1}, \"37\": {\"C\": 1}, \"38\": {\"C\": 1}, \"39\": {\"C\": 1}, \"40\": {\"C\": 1}, \"41\": {\"C\": 1}, \"42\": {\"C\": 1}, \"43\": {\"C\": 1}, \"44\": {\"C\": 1}, \"45\": {\"C\": 1}, \"46\": {\"C\": 1}, \"47\": {\"C\": 1}, \"48\": {\"C\": 1}, \"49\": {\"C\": 1}, \"50\": {\"C\": 1}, \"51\": {\"C\": 1}, \"52\": {\"C\": 1}, \"53\": {\"C\": 1}, \"54\": {\"C\": 1}, \"55\": {\"C\": 1}, \"56\": {\"C\": 1}, \"57\": {\"C\": 1}, \"58\": {\"C\": 1}, \"59\": {\"C\": 1}, \"60\": {\"C\": 1}, \"61\": {\"C\": 1}, \"62\": {\"C\": 1}, \"63\": {\"C\": 1}, \"64\": {\"O\": 1}, \"65\": {\"O\": 1}, \"66\": {\"O\": 1}, \"67\": {\"O\": 1}, \"68\": {\"O\": 1}, \"69\": {\"O\": 1}, \"70\": {\"O\": 1}, \"71\": {\"O\": 1}, \"72\": {\"O\": 1}, \"73\": {\"O\": 1}, \"74\": {\"O\": 1}, \"75\": {\"O\": 1}, \"76\": {\"O\": 1}, \"77\": {\"O\": 1}, \"78\": {\"O\": 1}, \"79\": {\"O\": 1}}" energy=-540.4150390625 free_energy=-540.4150390625 stress="-0.003133757971227169 4.945615728502162e-05 -0.0017363108927384019 4.945615728502162e-05 -0.004053181037306786 -0.0002822254318743944 -0.0017363108927384019 -0.0002822254318743944 -0.003296943148598075" pbc="T T T"
Zn       0.83954481       1.52985743       7.57812200        0       0.00811553      -0.12927330      -0.03714529
Zn       3.14807855       7.48002165       0.08983260        1       0.02066897      -0.12783897       0.07439221
Zn       2.54913890      10.37859987       7.76344881        2      -0.06847370       0.11350651       0.07358317
Zn       0.23562724       4.42643361      15.24583851        3       0.00055090       0.08200189       0.06107105
H        0.30572243       4.87798517       7.08445975        4      -0.05169091       0.02672332      -0.04703170
H        3.68110083      10.83409245       0.58994207        5       0.04846320       0.02101839       0.03751449
H        3.07974098       7.01789035       8.26736984        6      -0.02274285       0.05686492      -0.23937845
H       -0.30275278       1.07436077      14.75179199        7       0.08996069       0.01006239       0.33598784
H        0.29978600       6.80646412       3.23051528        8       0.03909512      -0.07030003       0.10724039
H        3.68537930       0.84977887       4.44239341        9      -0.07259461       0.02374710      -0.07487200
H        3.08025323       5.10298626      12.11179584       10      -0.03949240       0.00842008      -0.04756957
H       -0.30444270      11.04761953      10.90731444       11       0.07301460      -0.04941341      -0.00827071
H        2.36924348       3.40742145       3.94177394       12       0.01335362       0.04122169       0.06239749
H        1.62224513       9.36791696       3.72530918       13       0.29707071      -0.24844131       0.10691009
H        1.01668902       8.49378464      11.39962337       14       0.15550807       0.07207340       0.04872846
H        1.76054898       2.54705355      11.61903397       15      -0.04573950      -0.05861790      -0.01887704
H        0.87015246       8.02858854       5.76681034       16       0.00393400      -0.08858094       0.02986068
H        3.12441378       2.07073259       1.89742642       17       0.02970665       0.01471923       0.02983509
H        2.51422895       3.88316597       9.57185149       18       0.11913637      -0.15127842       0.02262553
H        0.26731049       9.82657384      13.44235206       19      -0.01871328       0.11535735       0.00846213
H        2.25547210       7.11713495       5.12718790       20      -0.12075761       0.06049293       0.11199766
H        1.73538850       1.16983115       2.54650459       21      -0.00113734       0.06666475      -0.03983201
H        1.12490981       4.78732528      10.22381695       22       0.34932864      -0.04694600      -0.24583045
H        1.64517902      10.73900091      12.80355237       23       0.02094493      -0.05175899      -0.01018149
H        1.66748646       6.80901965       6.77587404       24       0.03356197      -0.00283871       0.12260563
H        2.33031682       0.86273303       0.89663318       25      -0.11947879      -0.03497692      -0.15125170
H        1.71744236       5.08863174       8.57153766       26      -0.05032920       0.04577965      -0.13444380
H        1.06355463      11.04443033      14.45025562       27       0.00873975       0.00234173       0.04365548
C        3.12025904       2.97877444       6.53403032       28       0.15026398      -0.15521398       0.35575855
C        0.87424221       8.92788180       1.13134714       29      -0.10105715       0.24500966       0.23907441
C        0.26469597       8.93120808       8.80825902       30      -0.01082317      -0.03782180       0.13614433
C        2.51131929       2.97893539      14.20372578       31       0.30869433      -0.20604858       0.18467911
C       -0.04360679       4.95645506       6.05311057       32       0.18367602       0.15721799       0.07974448
C        4.03038869      10.91423436       1.62067879       33       0.11495955      -0.25339907      -0.19074951
C        3.42724558       6.95094560       9.29061896       34       0.02829769      -0.09931064       0.27988648
C       -0.64713432       0.99734490      13.73176890       35      -0.18789528      -0.04654074      -0.49905235
C       -0.04876650       6.02777985       3.91588301       36      -0.08572474       0.17067513      -0.40456447
C        4.03745012       0.08079720       3.75334482       37       0.30809063      -0.14655215       0.48427105
C        3.43827402       5.87700532      11.43019249       38      -0.15801576      -0.21565677       0.05150205
C       -0.65712420      11.82289666      11.58529533       39       0.02519630       0.03378104       0.11355215
C        3.12785905       4.10492920       4.29746061       40      -0.05569308      -0.01098878      -0.21768844
C        0.86898247      10.05401296       3.37896008       41      -0.45368189       0.47655329      -0.13913874
C        0.26489530       7.79674588      11.05014581       42      -0.22727948      -0.04479570      -0.02845543
C        2.51259097       1.84245102      11.96811143       43       0.22296712       0.00839083       0.12185836
C        0.41577229       5.98893789       5.22714452       44      -0.13926283      -0.15426801       0.29960233
C        3.57747731       0.03053583       2.44341787       45      -0.28806102       0.44827718      -0.20694745
C        2.97034441       5.91718453      10.11281947       46       0.25975171       0.16900100      -0.00564709