71
Lattice="6.47383862 0.0 0.0 -0.5349335568661351 10.840664422278204 0.0 -0.5513576916999237 -3.7665135081616494 11.428300151220114" Properties=species:S:1:pos:R:3:spacegroup_kinds:I:1:forces:R:3 spacegroup="P 1" unit_cell=conventional occupancy="_JSON {\"0\": {\"Cu\": 1}, \"1\": {\"H\": 1}, \"2\": {\"H\": 1}, \"3\": {\"H\": 1}, \"4\": {\"H\": 1}, \"5\": {\"H\": 1}, \"6\": {\"H\": 1}, \"7\": {\"H\": 1}, \"8\": {\"H\": 1}, \"9\": {\"H\": 1}, \"10\": {\"H\": 1}, \"11\": {\"H\": 1}, \"12\": {\"H\": 1}, \"13\": {\"H\": 1}, \"14\": {\"H\": 1}, \"15\": {\"H\": 1}, \"16\": {\"H\": 1}, \"17\": {\"H\": 1}, \"18\": {\"H\": 1}, \"19\": {\"C\": 1}, \"20\": {\"C\": 1}, \"21\": {\"C\": 1}, \"22\": {\"C\": 1}, \"23\": {\"C\": 1}, \"24\": {\"C\": 1}, \"25\": {\"C\": 1}, \"26\": {\"C\": 1}, \"27\": {\"C\": 1}, \"28\": {\"C\": 1}, \"29\": {\"C\": 1}, \"30\": {\"C\": 1}, \"31\": {\"C\": 1}, \"32\": {\"C\": 1}, \"33\": {\"C\": 1}, \"34\": {\"C\": 1}, \"35\": {\"C\": 1}, \"36\": {\"C\": 1}, \"37\": {\"C\": 1}, \"38\": {\"C\": 1}, \"39\": {\"C\": 1}, \"40\": {\"C\": 1}, \"41\": {\"C\": 1}, \"42\": {\"C\": 1}, \"43\": {\"C\": 1}, \"44\": {\"C\": 1}, \"45\": {\"C\": 1}, \"46\": {\"C\": 1}, \"47\": {\"C\": 1}, \"48\": {\"C\": 1}, \"49\": {\"C\": 1}, \"50\": {\"C\": 1}, \"51\": {\"C\": 1}, \"52\": {\"C\": 1}, \"53\": {\"N\": 1}, \"54\": {\"N\": 1}, \"55\": {\"O\": 1}, \"56\": {\"O\": 1}, \"57\": {\"O\": 1}, \"58\": {\"O\": 1}, \"59\": {\"F\": 1}, \"60\": {\"F\": 1}, \"61\": {\"F\": 1}, \"62\": {\"F\": 1}, \"63\": {\"F\": 1}, \"64\": {\"F\": 1}, \"65\": {\"F\": 1}, \"66\": {\"F\": 1}, \"67\": {\"F\": 1}, \"68\": {\"F\": 1}, \"69\": {\"F\": 1}, \"70\": {\"F\": 1}}" energy=-472.2102966308594 free_energy=-472.2102966308594 stress="0.003976635169237852 -0.0001085873445845209 -0.00010607155127217993 -0.0001085873445845209 0.004932043142616749 0.001387711730785668 -0.00010607155127217993 0.001387711730785668 0.005259576253592968" pbc="T T T"
Cu       2.42624949       8.95744606       5.71415636        0      -0.00047624      -0.00431292      -0.01529992
H        1.82473175       8.27392886       2.93195334        1      -0.02476798      -0.00620828       0.02509083
H        3.56110289      -1.19870772       8.49402579        2       0.00947458       0.01707026      -0.02245999
H        2.92843076       7.06129212       1.05238874        3      -0.00564188      -0.06622346      -0.07178047
H        2.45853275       0.01325307      10.37612668        4      -0.04074533       0.04385313      -0.01895963
H        0.02207606       6.87291511       3.48167370        5       0.01533982      -0.01888394       0.02040867
H        5.36496050       0.20157909       7.94458319        6       0.01615819       0.01130967      -0.01033133
H        5.24695944       8.04478395       5.26572032        7       0.05076803       0.00886749       0.00746348
H        0.13940237      -0.97054434       6.15927702        8      -0.03922664       0.01317911       0.04930214
H        3.71198571       4.57594048       2.35068702        9      -0.01915996       0.00243390      -0.01231629
H        1.67439970       2.49891386       9.07556142       10       0.03852293      -0.03142246      -0.01449829
H        3.22546097       2.20740517       1.90709710       11      -0.00777952      -0.01524328       0.02225331
H        2.16137124       4.86783771       9.51970983       12       0.01805234       0.00950440      -0.04046647
H        4.47970645       0.96415303       0.14463485       13      -0.00752810       0.00562188      -0.03011146
H        0.90757948       6.11138783      11.28156154       14       0.00014038      -0.03089398       0.03547504
H        5.63182381      -1.66114938      10.22167357       15       0.01824430       0.01673609      -0.03462903
H       -0.24606346       8.73629389       1.20503326       16       0.02502558      -0.07553647      -0.03338660
H        2.29473624       2.28029022       4.14625804       17      -0.02691629       0.03081861      -0.03769285
H        3.09129481       4.79433658       7.28216369       18       0.02192471      -0.05692895       0.03378348
C        2.85172313       7.92841795       3.01111784       19       0.02253869      -0.06369220      -0.08081019
C        2.53392463      -0.85204296       8.41524134       20       0.00601846       0.00580992      -0.01317189
C        3.47526900       7.25548333       1.96904906       21       0.12185453       0.03275825       0.15938033
C        1.91010469      -0.18131729       9.45665089       22      -0.03747802       0.01077259      -0.00039363
C        4.81327275       6.84835336       2.11001373       23       0.01777745       0.01377968      -0.09731397
C        0.57335703       0.22649519       9.31882155       24      -0.03267602      -0.04999734      -0.02436681
C        5.46100154       7.16160041       3.31070542       25       0.02447611      -0.03047048       0.07777636
C       -0.07299444      -0.08730470       8.11651836       26      -0.10566209       0.07433618      -0.04200897
C        4.76956123       7.82667931       4.31450900       27       0.06824063       0.04909239      -0.04453450
C        0.61672686      -0.75083045       7.11220591       28      -0.06624241      -0.09212032      -0.05439377
C        5.51435689       6.12125358       1.02555790       29       0.01626904      -0.03144796      -0.05328530
C       -0.12755340       0.95320093      10.40018466       30      -0.04097843       0.01373704       0.07408893
C        5.36262413       0.28041557      11.16483628       31       0.02137893      -0.18943767       0.08799917
C        0.02404315       6.79300087       0.25918915       32      -0.06789452       0.20220616      -0.04315992
C        5.20607570       4.76167766       0.77745439       33      -0.11324835      -0.15792766       0.10595457
C        0.17943221       2.31171869      10.64743634       34       0.14358342       0.18448170      -0.09760322
C        4.23514793       4.05752926       1.54698579       35       0.12472245       0.24745618      -0.01463505
C        1.15204937       3.01525753       9.87940879       36      -0.13367572      -0.17817265       0.00961122
C        3.96739490       2.72829075       1.30523829       37       0.10071965      -0.23209348      -0.06868961
C        1.41910534       4.34526437      10.11876596       38      -0.15382272       0.26025999       0.18036512
C        4.67227259       2.02527090       0.30433070       39      -0.08437960      -0.07428091       0.22767892
C        0.71438387       5.04942544      11.12364381       40       0.16118085       0.04730029      -0.36211765
C        5.07542594      -1.10074413      10.97125074       41       0.02923372       0.22180539       0.04041120
C        0.31105592       8.17442662       0.45260196       42      -0.10212013      -0.16668615       0.08114014
C        1.53110377       0.29673198       3.89441566       43      -0.31107071       0.01721749      -0.37572560
C        3.85736274       6.77685525       7.53236259       44       0.19287798      -0.02378112       0.30546731
C        2.44452963       1.23550975       4.41371116       45      -0.10506725       0.04583167      -0.08522839
C        2.94110150       5.83766638       7.01204869       46       0.18302324       0.01964474       0.12582791
C        3.54121456       0.95039122       5.23254369       47       0.58426243       0.30121088       0.40641394
C        1.84580854       6.12320000       6.19251917       48      -0.59493089      -0.29108274      -0.39808452
C        4.37984137       2.14815587       5.71793224       49      -0.44024360      -0.09792798       0.08513573
C        1.00641297       4.92680460       5.70757926       50       0.41190952       0.04081611      -0.00090232
C        0.54317070       0.82972012       2.82279101       51       0.14215760       0.06139578       0.11491692
C        4.84324168       6.24620143       8.60240358       52      -0.12938625      -0.17745282      -0.03919917
N        3.48675055       8.19642513       4.17235755       53       0.00285578      -0.01819588      -0.10118887
N        1.89969876      -1.12039829       7.25174770       54       0.02718680       0.03469910       0.19276753
O        3.96830524      -0.16137159       5.68776691       55      -0.26928541      -0.02331963      -0.17740545
O        1.41821278       7.23485407       5.73695989       56       0.27975610       0.03245714       0.17918301
O        1.43942990      -0.93272511       4.13942447       57       0.04019889      -0.00784436       0.04908237
O        3.94715628       8.00648361       7.28687140       58      -0.03078106       0.00603953      -0.04735195
F        5.80912984       0.20777742       2.90248204       59       0.03475267      -0.01316991      -0.02579280
F       -0.42358940       6.86775404       8.52459329       60      -0.00780147       0.01595962       0.01988055
F        1.05262671       0.55703333       1.57826435       61       0.01986215       0.02438451       0.17890954
F        4.33490557       6.51470392       9.84948612       62      -0.02581412      -0.00689994      -0.20225871
F        0.32675418       2.16633977       2.88541726       63       0.12101537      -0.09845132       0.11034925
F        5.05800023       4.90670768       8.54157431       64      -0.11362040       0.16576529      -0.12476507
F        4.09362587       2.40292440       7.03528891       65       0.08517044      -0.11845684      -0.34017459
F        1.29002952       4.66955262       4.39330682       66      -0.05833419       0.10985748       0.25970072
F        4.15600624       3.29291143       5.02082462       67      -0.07387779       0.06503785      -0.11843777
F        1.22819897       3.78154521       6.40729552       68       0.08210848      -0.03514886       0.10569969
F        5.71208846       1.87268312       5.64851117       69       0.21579170       0.00125656       0.05842747
F       -0.32595067       5.20118172       5.77850607       70      -0.22394210       0.01894763      -0.05501302
71
Lattice="6.47383862 0.0 0.0 -0.5349335568661351 10.840664422278204 0.0 -0.5513576916999237 -3.7665135081616494 11.428300151220114" Properties=species:S:1:pos:R:3:spacegroup_kinds:I:1:forces:R:3 spacegroup="P 1" unit_cell=conventional occupancy="_JSON {\"0\": {\"Cu\": 1}, \"1\": {\"H\": 1}, \"2\": {\"H\": 1}, \"3\": {\"H\": 1}, \"4\": {\"H\": 1}, \"5\": {\"H\": 1}, \"6\": {\"H\": 1}, \"7\": {\"H\": 1}, \"8\": {\"H\": 1}, \"9\": {\"H\": 1}, \"10\": {\"H\": 1}, \"11\": {\"H\": 1}, \"12\": {\"H\": 1}, \"13\": {\"H\": 1}, \"14\": {\"H\": 1}, \"15\": {\"H\": 1}, \"16\": {\"H\": 1}, \"17\": {\"H\": 1}, \"18\": {\"H\": 1}, \"19\": {\"C\": 1}, \"20\": {\"C\": 1}, \"21\": {\"C\": 1}, \"22\": {\"C\": 1}, \"23\": {\"C\": 1}, \"24\": {\"C\": 1}, \"25\": {\"C\": 1}, \"26\": {\"C\": 1}, \"27\": {\"C\": 1}, \"28\": {\"C\": 1}, \"29\": {\"C\": 1}, \"30\": {\"C\": 1}, \"31\": {\"C\": 1}, \"32\": {\"C\": 1}, \"33\": {\"C\": 1}, \"34\": {\"C\": 1}, \"35\": {\"C\": 1}, \"36\": {\"C\": 1}, \"37\": {\"C\": 1}, \"38\": {\"C\": 1}, \"39\": {\"C\": 1}, \"40\": {\"C\": 1}, \"41\": {\"C\": 1}, \"42\": {\"C\": 1}, \"43\": {\"C\": 1}, \"44\": {\"C\": 1}, \"45\": {\"C\": 1}, \"46\": {\"C\": 1}, \"47\": {\"C\": 1}, \"48\": {\"C\": 1}, \"49\": {\"C\": 1}, \"50\": {\"C\": 1}, \"51\": {\"C\": 1}, \"52\": {\"C\": 1}, \"53\": {\"N\": 1}, \"54\": {\"N\": 1}, \"55\": {\"O\": 1}, \"56\": {\"O\": 1}, \"57\": {\"O\": 1}, \"58\": {\"O\": 1}, \"59\": {\"F\": 1}, \"60\": {\"F\": 1}, \"61\": {\"F\": 1}, \"62\": {\"F\": 1}, \"63\": {\"F\": 1}, \"64\": {\"F\": 1}, \"65\": {\"F\": 1}, \"66\": {\"F\": 1}, \"67\": {\"F\": 1}, \"68\": {\"F\": 1}, \"69\": {\"F\": 1}, \"70\": {\"F\": 1}}" energy=-472.23297119140625 free_energy=-472.23297119140625 stress="0.0046863374300301075 -0.00011005334818037227 0.00017728917009662837 -0.00011005334818037227 0.004814920015633106 0.0007728611817583442 0.00017728917009662837 0.0007728611817583442 0.004616576246917248" pbc="T T T"
Cu       2.42503254       8.95838314       5.71400450        0       0.01140854      -0.01250554      -0.03095925
H        1.82521862       8.27410698       2.93097926        1      -0.05551947      -0.00318927       0.01393942
H        3.56006742      -1.19813371       8.49277493        2       0.04003312       0.01193428      -0.01415395
H        2.92857308       7.06093905       1.05120192        3       0.02836604      -0.05433394      -0.01850078
H        2.45668796       0.01410942      10.37464487        4      -0.04320956       0.04256538      -0.02002802
H        0.02201628       6.87330965       3.48201367        5      -0.00979145      -0.01163515       0.01221774
H        5.36420076       0.20257283       7.94294720        6      -0.02254386       0.02169816      -0.01161452
H        5.24725907       8.04617092       5.26492991        7       0.03945246       0.00101413      -0.01417214
H        0.13787298      -0.97090528       6.15844711        8      -0.04749801       0.00061386       0.00462394
H        3.71118984       4.57657725       2.35005654        9      -0.01114346       0.00361401      -0.01771237
H        1.67437045       2.49787559       9.07490105       10       0.03414366      -0.02732855      -0.01523012
H        3.22411615       2.20761745       1.90644076       11       0.01840155      -0.00111787       0.00086394
H        2.16105835       4.86853082       9.51832642       12      -0.01401262      -0.01026412      -0.02335777
H        4.47832605       0.96502560       0.14282716       13      -0.01442887      -0.02939665      -0.02884393
H        0.90716122       6.11085986      11.28145727       14       0.02099769       0.02380568       0.03617870
H        5.63208808      -1.66000973      10.22084382       15       0.00431789       0.02767488      -0.01542407
H       -0.24652517       8.73613037       1.20400746       16       0.00981344      -0.06412593      -0.00931228
H        2.29357650       2.28155044       4.14552162       17      -0.03132706       0.01125894      -0.04126845
H        3.09030724       4.79352116       7.28250309       18       0.02065135       0.03260627       0.02273187
C        2.85095275       7.92743483       3.00857320       19       0.05940858      -0.01209258       0.04590718
C        2.53372300      -0.85155582       8.41430556       20      -0.01353404       0.03113568       0.02145880
C        3.47610090       7.25613845       1.96973722       21       0.07292977      -0.02739943      -0.01853770
C        1.90861475      -0.18082723       9.45487083       22      -0.05233817       0.02335114       0.03768802
C        4.81356508       6.84916730       2.10829787       23       0.04018763       0.01025555      -0.03688316
C        0.57102064       0.22632331       9.31839435       24       0.00769079      -0.04985629      -0.03957086
C        5.46025405       7.16230531       3.31017399       25       0.09521284      -0.06966828       0.03298929
C       -0.07509608      -0.08634733       8.11550217       26      -0.04589599       0.02237869      -0.09120257
C        4.76988619       7.82696406       4.31314541       27       0.01985984       0.08328119      -0.00277072
C        0.61448807      -0.75120144       7.10996653       28       0.04672624      -0.05847890       0.08990970
C        5.51423559       6.12122030       1.02509095       29      -0.01785338      -0.09298398      -0.08145919
C       -0.12844934       0.95338262      10.40020305       30      -0.01061089       0.06162943       0.06982419
C        5.36279397       0.27778393      11.16512768       31       0.04852979      -0.03040616       0.08818132
C        0.02129941       6.79298875       0.25779358       32       0.00786627       0.24177422      -0.06278838
C        5.20433001       4.76016296       0.77674595       33      -0.04051954      -0.04650850       0.11250272
C        0.18132123       2.31462242      10.64511684       34      -0.02511853      -0.02322476      -0.03044541
C        4.23633679       4.06012753       1.54631577       35       0.03204746       0.03452920      -0.01588970
C        1.15010808       3.01409301       9.87752300       36      -0.05149442      -0.02850989      -0.00854969
C        3.96787500       2.72638481       1.30291085       37       0.03376526      -0.05801030       0.07992457
C        1.41625335       4.34712049      10.11769912       38      -0.04977027       0.17962147       0.06497751
C        4.67045349       2.02452847       0.30601400       39       0.06322417      -0.01920370       0.07644566
C        0.71668556       5.05073166      11.12067359       40      -0.09245199      -0.09596036      -0.16819267
C        5.07629823      -1.09863685      10.97124789       41      -0.05458045       0.02038239       0.06374928
C        0.30871334       8.17250867       0.45296680       42       0.07270683      -0.03473259      -0.06693420
C        1.52826296       0.29829789       3.89142752       43      -0.20258792      -0.11582530      -0.23505539
C        3.85791319       6.77736022       7.53475187       44       0.11181372       0.01039949       0.18631086
C        2.44193381       1.23554548       4.41123534       45       0.03711369       0.09174105       0.00765575
C        2.94175464       5.84026728       7.01361376       46       0.03861595      -0.14115307       0.04939481
C        3.54394947       0.95318884       5.23337707       47       0.28843984       0.19011386       0.20128658
C        1.84288094       6.12070702       6.18952364       48      -0.36619166      -0.08827828      -0.24063669
C        4.37694872       2.14582102       5.71749950       49      -0.23959498       0.07760901       0.01083440
C        1.00836894       4.92726839       5.70600046       50       0.20894459       0.01249632       0.08062348
C        0.54461452       0.83186550       2.82366862       51       0.04178403      -0.07468932       0.06357074
C        4.84076966       6.24457021       8.60053734       52      -0.05581607      -0.03717439      -0.00154698
N        3.48664477       8.19625291       4.17034819       53      -0.01142737      -0.01067074      -0.09216583
N        1.90061833      -1.11910778       7.25255932       54      -0.12511903       0.02584129       0.07664135
O        3.96535749      -0.16060091       5.68478299       55      -0.20465997      -0.04497337      -0.13522600
O        1.42025106       7.23694802       5.73755691       56       0.24146521      -0.06429669       0.16969214
O        1.43919194      -0.93325812       4.13904602       57       0.02580987       0.09017596       0.00853135
O        3.94638329       8.00638970       7.28467141       58      -0.00636393       0.02435890      -0.01773898
F        5.80873640       0.20812624       2.90150077       59       0.07529646       0.00656769      -0.02758821
F       -0.42493697       6.86773291       8.52382873       60      -0.02610934      -0.00235170       0.01638997
F        1.05390141       0.55719670       1.58019008       61       0.02760977       0.02053433       0.14439106
F        4.33375643       6.51712162       9.84654312       62      -0.03584215      -0.02051433      -0.16499949
F        0.32751812       2.16397252       2.88553664       63       0.10103767       0.03810418       0.11673546
F        5.05514675       4.90934962       8.53865032       64      -0.09656532       0.04906970      -0.11733202
F        4.09449963       2.40062878       7.03275138       65       0.05625426      -0.09263396      -0.25653958
F        1.28738661       4.67065807       4.39552964       66      -0.01797618       0.07314391       0.12086987
F        4.15324054       3.29427672       5.01807685       67      -0.04000282      -0.04669398      -0.05274901
F        1.22917026       3.78220731       6.40796227       68       0.05989608      -0.00836569       0.09300148
F        5.71433890       1.87151304       5.64948951       69       0.09115058       0.02975704       0.04216282
F       -0.32859007       5.20397227       5.77576369       70      -0.10107416      -0.01648439      -0.03682582
71
Lattice="6.47383862 0.0 0.0 -0.5349335568661351 10.840664422278204 0.0 -0.5513576916999237 -3.7665135081616494 11.428300151220114" Properties=species:S:1:pos:R:3:spacegroup_kinds:I:1:forces:R:3 spacegroup="P 1" unit_cell=conventional occupancy="_JSON {\"0\": {\"Cu\": 1}, \"1\": {\"H\": 1}, \"2\": {\"H\": 1}, \"3\": {\"H\": 1}, \"4\": {\"H\": 1}, \"5\": {\"H\": 1}, \"6\": {\"H\": 1}, \"7\": {\"H\": 1}, \"8\": {\"H\": 1}, \"9\": {\"H\": 1}, \"10\": {\"H\": 1}, \"11\": {\"H\": 1}, \"12\": {\"H\": 1}, \"13\": {\"H\": 1}, \"14\": {\"H\": 1}, \"15\": {\"H\": 1}, \"16\": {\"H\": 1}, \"17\": {\"H\": 1}, \"18\": {\"H\": 1}, \"19\": {\"C\": 1}, \"20\": {\"C\": 1}, \"21\": {\"C\": 1}, \"22\": {\"C\": 1}, \"23\": {\"C\": 1}, \"24\": {\"C\": 1}, \"25\": {\"C\": 1}, \"26\": {\"C\": 1}, \"27\": {\"C\": 1}, \"28\": {\"C\": 1}, \"29\": {\"C\": 1}, \"30\": {\"C\": 1}, \"31\": {\"C\": 1}, \"32\": {\"C\": 1}, \"33\": {\"C\": 1}, \"34\": {\"C\": 1}, \"35\": {\"C\": 1}, \"36\": {\"C\": 1}, \"37\": {\"C\": 1}, \"38\": {\"C\": 1}, \"39\": {\"C\": 1}, \"40\": {\"C\": 1}, \"41\": {\"C\": 1}, \"42\": {\"C\": 1}, \"43\": {\"C\": 1}, \"44\": {\"C\": 1}, \"45\": {\"C\": 1}, \"46\": {\"C\": 1}, \"47\": {\"C\": 1}, \"48\": {\"C\": 1}, \"49\": {\"C\": 1}, \"50\": {\"C\": 1}, \"51\": {\"C\": 1}, \"52\": {\"C\": 1}, \"53\": {\"N\": 1}, \"54\": {\"N\": 1}, \"55\": {\"O\": 1}, \"56\": {\"O\": 1}, \"57\": {\"O\": 1}, \"58\": {\"O\": 1}, \"59\": {\"F\": 1}, \"60\": {\"F\": 1}, \"61\": {\"F\": 1}, \"62\": {\"F\": 1}, \"63\": {\"F\": 1}, \"64\": {\"F\": 1}, \"65\": {\"F\": 1}, \"66\": {\"F\": 1}, \"67\": {\"F\": 1}, \"68\": {\"F\": 1}, \"69\": {\"F\": 1}, \"70\": {\"F\": 1}}" energy=-472.2432556152344 free_energy=-472.2432556152344 stress="0.0045336149632930756 8.552398503525183e-05 0.0003553882706910372 8.552398503525183e-05 0.004639501217752695 0.0007861687336117029 0.0003553882706910372 0.0007861687336117029 0.0043070148676633835" pbc="T T T"
Cu       2.42408527       8.95858389       5.71260426        0       0.01247464      -0.01046881      -0.01832500
H        1.82496343       8.27328288       2.93084397        1      -0.03435928      -0.01290800       0.01006020
H        3.55858745      -1.19757854       8.49166672        2       0.06208603       0.00604074      -0.01692368
H        2.92787392       7.05995103       1.04938973        3       0.05021090      -0.04590617       0.01176924
H        2.45584525       0.01562621      10.37439552        4      -0.05167086       0.03825565      -0.03402149
H        0.02116026       6.87395903       3.48172666        5       0.03779979      -0.03158282       0.01861382
H        5.36291022       0.20295594       7.94130412        6      -0.00515383       0.01714924      -0.00956163
H        5.24851032       8.04659459       5.26353253        7       0.02364921       0.00282786      -0.02235591
H        0.13601301      -0.97031775       6.15723378        8      -0.02278008      -0.00803157       0.01906306
H        3.71064164       4.57642961       2.34892552        9      -0.02413493       0.01341349      -0.00778577
H        1.67392563       2.49785023       9.07504580       10       0.04868126      -0.03924862      -0.04126740
H        3.22333928       2.20753942       1.90580112       11       0.02405926       0.00063756      -0.00226686
H        2.16015653       4.86926928       9.51667152       12      -0.01915988      -0.00504776      -0.01580921
H        4.47631422       0.96567668       0.14220930       13      -0.00669210      -0.04158713      -0.03051456
H        0.90670329       6.11103234      11.28108709       14       0.01312791      -0.02586097       0.02506168
H        5.63180405      -1.65931115      10.22003896       15      -0.00997318       0.03637892      -0.00068828
H       -0.24739245       8.73599277       1.20331042       16       0.02658827      -0.07328275      -0.02498339
H        2.29251031       2.28214388       4.14363459       17      -0.02634735      -0.02700998      -0.02858826
H        3.08954129       4.79398502       7.28208622       18       0.03569303      -0.03986144       0.04524364
C        2.85166110       7.92698462       3.00793029       19       0.01460364      -0.00320315       0.00821044
C        2.53298017      -0.85085454       8.41311039       20      -0.01814601       0.04439390       0.08064240
C        3.47724927       7.25615257       1.96797125       21      -0.01639855      -0.00602803      -0.03529516
C        1.90764914      -0.18043275       9.45436950       22       0.02078885       0.00040004       0.03863087
C        4.81272557       6.85063528       2.10630615       23       0.14913800      -0.03411739       0.01058188
C        0.57200786       0.22502433       9.31652200       24      -0.12754703       0.02797319       0.00516641
C        5.46070397       7.16168168       3.31028607       25      -0.00051506      -0.04089983      -0.02770003
C       -0.07605958      -0.08656800       8.11345603       26      -0.02011275       0.01656903      -0.06969906
C        4.76987744       7.82755845       4.31184721       27       0.04896888       0.07521384       0.01392737
C        0.61474404      -0.75272202       7.10895672       28      -0.08232196      -0.00275442       0.08793847
C        5.51405692       6.12046572       1.02424522       29       0.00279087      -0.01772347      -0.09792951
C       -0.12892020       0.95455718      10.40000405       30       0.01848742      -0.02607997       0.00004250
C        5.36386942       0.27817339      11.16478873       31      -0.00200921      -0.03903545       0.12210579
C        0.02155223       6.79529812       0.25564811       32      -0.07388626       0.11060055      -0.01911856
C        5.20304975       4.76006777       0.77714588       33       0.02728833      -0.02227116       0.05310284
C        0.18001637       2.31520806      10.64286549       34      -0.00505364       0.01964085      -0.01825573
C        4.23514447       4.06104822       1.54483134       35       0.01259327      -0.04559172       0.00048715
C        1.14866572       3.01343772       9.87603082       36      -0.03225329       0.10042804       0.01906617
C        3.96791701       2.72552076       1.30224876       37       0.01350183       0.00806576       0.11773296
C        1.41469428       4.34972330      10.11707286       38      -0.01551332      -0.00506061      -0.03868654
C        4.67042924       2.02425198       0.30674446       39       0.08370969      -0.00572941       0.03689545
C        0.71638708       5.04945088      11.11814664       40      -0.12485845       0.05484041      -0.07717507
C        5.07581777      -1.09774840      10.97118023       41      -0.03125575      -0.00962198       0.04732677
C        0.30833194       8.17207903       0.45187596       42       0.06584537       0.01338911      -0.05541642
C        1.52543190       0.29792884       3.89004286       43      -0.05218245      -0.06016323      -0.12217864
C        3.85935233       6.77676071       7.53628341       44      -0.02268964       0.07971832       0.04222813
C        2.44176162       1.23548501       4.41137101       45       0.02850889       0.11520237      -0.00358699
C        2.94224155       5.83869757       7.01396059       46      -0.03319440      -0.02454813      -0.01734746
C        3.54634208       0.95602623       5.23505628       47       0.08495258       0.06686100       0.05943169
C        1.84003697       6.11833047       6.18655321       48      -0.11476606       0.00197785      -0.05233587
C        4.37438434       2.14729127       5.71528233       49      -0.07767823       0.04087536       0.06914774
C        1.01070144       4.92794845       5.70702318       50       0.01828516      -0.04028212       0.02263677
C        0.54508857       0.83163774       2.82478267       51      -0.00520732      -0.00518120       0.02979422
C        4.83953205       6.24430843       8.59913536       52      -0.02943088      -0.00955965       0.04548877
N        3.48643361       8.19696291       4.16856823       53       0.00804965      -0.01346002      -0.06520018
N        1.89879111      -1.11856075       7.25368674       54      -0.03995971      -0.02882507      -0.00293800
O        3.96255905      -0.16126067       5.68185400       55      -0.14571834      -0.01858321      -0.09528612
O        1.42241131       7.23658691       5.73808920       56       0.18833974      -0.05548698       0.13184696
O        1.43850022      -0.93314174       4.13834288       57       0.00649756       0.05242431       0.00509035
O        3.94504901       8.00726614       7.28269336       58       0.00747199      -0.07185039       0.02249291
F        5.80902510       0.20873748       2.89984368       59       0.05592811       0.01131696      -0.01916868
F       -0.42657703       6.86762751       8.52355940       60      -0.00104386       0.00578165       0.01588415
F        1.05412682       0.55794226       1.58203996       61       0.04673073       0.01301233       0.10575414
F        4.33265089       6.51742328       9.84518080       62      -0.03760606      -0.02682197      -0.15672654
F        0.33002918       2.16541487       2.88647297       63       0.09399553      -0.00620294       0.11816618
F        5.05339709       4.91039661       8.53654570       64      -0.08804691       0.00657356      -0.11168778
F        4.09681948       2.40069360       7.03010603       65       0.02166283      -0.07226335      -0.19049609
F        1.28702540       4.67103623       4.39658753       66      -0.00404441       0.06260438       0.08395642
F        4.15105569       3.29271686       5.01698056       67      -0.04567181       0.02504784      -0.09865761
F        1.22924873       3.78277362       6.40800411       68       0.05450670      -0.01320416       0.10903984