90
Lattice="10.88024281 0.0 0.0 4.205821677417356 11.90483648468866 0.0 1.1864188114764487 3.452206330816405 13.12550492277969" Properties=species:S:1:pos:R:3:spacegroup_kinds:I:1:forces:R:3 spacegroup="P 1" unit_cell=conventional occupancy="_JSON {\"0\": {\"Zn\": 1}, \"1\": {\"Zn\": 1}, \"2\": {\"H\": 1}, \"3\": {\"H\": 1}, \"4\": {\"H\": 1}, \"5\": {\"H\": 1}, \"6\": {\"H\": 1}, \"7\": {\"H\": 1}, \"8\": {\"H\": 1}, \"9\": {\"H\": 1}, \"10\": {\"H\": 1}, \"11\": {\"H\": 1}, \"12\": {\"H\": 1}, \"13\": {\"H\": 1}, \"14\": {\"H\": 1}, \"15\": {\"H\": 1}, \"16\": {\"H\": 1}, \"17\": {\"H\": 1}, \"18\": {\"H\": 1}, \"19\": {\"H\": 1}, \"20\": {\"H\": 1}, \"21\": {\"H\": 1}, \"22\": {\"H\": 1}, \"23\": {\"C\": 1}, \"24\": {\"C\": 1}, \"25\": {\"C\": 1}, \"26\": {\"C\": 1}, \"27\": {\"C\": 1}, \"28\": {\"C\": 1}, \"29\": {\"C\": 1}, \"30\": {\"C\": 1}, \"31\": {\"C\": 1}, \"32\": {\"C\": 1}, \"33\": {\"C\": 1}, \"34\": {\"C\": 1}, \"35\": {\"C\": 1}, \"36\": {\"C\": 1}, \"37\": {\"C\": 1}, \"38\": {\"C\": 1}, \"39\": {\"C\": 1}, \"40\": {\"C\": 1}, \"41\": {\"C\": 1}, \"42\": {\"C\": 1}, \"43\": {\"C\": 1}, \"44\": {\"C\": 1}, \"45\": {\"C\": 1}, \"46\": {\"C\": 1}, \"47\": {\"C\": 1}, \"48\": {\"C\": 1}, \"49\": {\"C\": 1}, \"50\": {\"C\": 1}, \"51\": {\"C\": 1}, \"52\": {\"C\": 1}, \"53\": {\"C\": 1}, \"54\": {\"C\": 1}, \"55\": {\"C\": 1}, \"56\": {\"C\": 1}, \"57\": {\"C\": 1}, \"58\": {\"C\": 1}, \"59\": {\"C\": 1}, \"60\": {\"C\": 1}, \"61\": {\"C\": 1}, \"62\": {\"C\": 1}, \"63\": {\"C\": 1}, \"64\": {\"C\": 1}, \"65\": {\"C\": 1}, \"66\": {\"C\": 1}, \"67\": {\"C\": 1}, \"68\": {\"N\": 1}, \"69\": {\"N\": 1}, \"70\": {\"N\": 1}, \"71\": {\"N\": 1}, \"72\": {\"N\": 1}, \"73\": {\"N\": 1}, \"74\": {\"N\": 1}, \"75\": {\"N\": 1}, \"76\": {\"N\": 1}, \"77\": {\"O\": 1}, \"78\": {\"O\": 1}, \"79\": {\"O\": 1}, \"80\": {\"O\": 1}, \"81\": {\"O\": 1}, \"82\": {\"O\": 1}, \"83\": {\"O\": 1}, \"84\": {\"O\": 1}, \"85\": {\"O\": 1}, \"86\": {\"O\": 1}, \"87\": {\"O\": 1}, \"88\": {\"O\": 1}, \"89\": {\"O\": 1}}" energy=-647.814208984375 free_energy=-647.814208984375 stress="0.0010126156266778708 8.66158734424971e-06 0.0008724991348572075 8.66158734424971e-06 -0.001297110691666603 -0.0025837088469415903 0.0008724991348572075 -0.0025837088469415903 0.0017614676617085934" pbc="T T T"
Zn       7.87752307       9.23961088       6.49807882        0       0.41765565      -0.47318333       0.32508948
Zn       7.92439701       6.16556049       6.70509956        1       0.11799078       0.27179381       0.23169672
H       12.02828477       9.47825145       5.30581332        2      -0.52085149       0.79645586      -0.01540481
H        4.07893396       3.63538180       9.01839436        3      -0.42184424      -0.15116322       0.02592854
H        9.16988270       4.42706408       4.97425757        4      -0.21485321      -0.22552082      -0.12105046
H       11.33850266      12.49061399       4.84849394        5      -0.04914200       0.81964338       0.63276267
H       12.12275763       8.98336173       7.98451812        6      -0.06698114       0.51636893      -0.09547138
H        3.54371428       9.00508670       8.27188866        7      -0.21374778      -0.93881691      -0.46995586
H       12.36008366       5.85389101       5.01968818        8       0.05377975      -0.14332667       0.15032820
H        3.72903891       6.40756007       4.79302307        9      -0.12992574       0.03830314       0.74057025
H       12.14826468      10.92266536      11.85560964       10       0.23027617       0.08158981      -0.10662572
H        1.98020607       2.73208080       8.42129594       11      -0.00164849       0.41294488       0.01347825
H       10.29720398      10.05892697       6.29488300       12      -0.28632176       0.75055730       0.11293665
H        4.00127601       5.62473851       6.37892083       13      -0.18876824       0.16817833      -0.08900464
H        5.63667611       5.30973050       9.15363263       14      -0.02266229       0.37664476       0.31629062
H        4.79859200       9.26232138       4.47067227       15      -0.79774672      -0.40451026      -0.30472797
H       12.10183484       7.29903720       8.52762608       16       0.50423366       0.67478299      -0.79017580
H        7.80586599       5.73490094      10.60838881       17      -0.24270394      -0.63897121      -0.45492628
H        6.29036049       3.54920400       2.05050722       18       0.22830048       0.36473805       0.04593474
H       10.87539854       8.80845298       0.49971857       19       0.27757367       0.26440105       0.06640753
H       12.55190114       8.14848715       4.26415201       20      -0.13952254       0.03264061       0.18894501
H        6.85619805       5.56715895       3.34442870       21      -0.25903445      -0.03982247       0.64999986
H        6.27216005      11.32776889       7.69296990       22      -0.00785021      -0.19960357       0.03813381
C        8.05516503       7.77035561       4.04402104       23       0.11530924       0.45625028       1.05932045
C        8.51552871       6.34698676       0.44552994       24      -0.62426913      -0.57985938       1.33154154
C        8.04401741       6.46070592       1.83709939       25       1.04601121       1.22365439      -0.93672872
C       10.56913139       7.43933663       6.30705894       26       0.25605586       1.53377140       1.03580534
C        9.10544594       8.77778490      12.71477676       27      -0.20067602      -0.48138678       0.54186654
C        7.25113219       4.23950243       0.22170546       28      -0.15386473       1.15427852       1.36749637
C        6.89781713       4.37748784       1.64712322       29      -1.04457784      -3.94518018      -3.35770130
C        7.17358450       5.43993518       2.33272064       30       1.31050599       3.25461602       1.65117121
C        9.01242321       8.81325489      11.28762883       31       1.29580736       2.68638301       0.27898514
C        8.12283907       6.56545233      11.19730337       32       0.44313353       2.15931225       0.57249522
C        8.51824618       7.58546066       2.64698582       33      -1.20269167      -1.55945921      -0.76008499
C        3.83060536       7.76747713       6.47984304       34      -0.38378599       0.76021731      -0.79641378
C        7.38563914      13.13856045       7.99187362       35      -0.77882975       0.73984736       0.87973380
C        8.40934639       3.71683121       5.33093722       36       0.77994275      -0.51924229       0.04809080
C        8.27127045       2.40647918       4.77976039       37      -0.40100554       1.02208436       0.34465078
C        8.34824273       7.73899776       9.06347186       38      -0.32900268       1.78400636       1.37363052
C        7.28513576       1.58313837       5.33575423       39       0.88088655      -1.34024978      -1.68902397
C        6.51484525       2.00598322       6.39609220       40      -0.75124234       0.90013528       0.82133269
C        6.71639276       3.33263070       6.90330803       41       0.47955018       0.18370138       0.63169092
C        9.58816448      13.16732521       6.90570355       42      -0.21605527       0.80827045       0.27294618
C        8.61865761      13.81008632       7.70682565       43      -0.52965713       0.28455979       0.06122018
C        4.69810805       3.18053890       8.24834903       44      -0.08018560       0.45996663       1.01768982
C        3.18533888       7.99632412       7.85924198       45       0.57807851       1.26620984       0.36803454
C        5.89332439       3.81145967       8.02234456       46       1.90915036       0.23850963      -1.35127115
C        9.37230169      11.81390280       6.69017315       47       1.88441849      -2.04983521      -1.14128494
C        7.22216103      11.83844555       7.55303139       48      -0.07365550       0.50845200       0.17408493
C        5.37040575       7.88191658       6.55216560       49      -0.15931278      -1.19156337       0.60866266
C       12.60612833       8.58120151       5.27946936       50       0.58456141      -1.23762262       0.54657763
C        3.20680735       8.89370643       5.56674599       51       0.68199527      -0.40516952      -1.05074835
C       12.55072171       8.01562971       7.75148501       52      -1.33852279      -1.57345366       0.86949921
C       12.77447265       6.17753454       5.99129480       53       0.46003956       1.77064800      -0.79323488
C       12.08431491       7.53992068       6.35845308       54       1.39721823       0.66041988      -1.00159931
C        3.70792718       7.04847982       8.81201339       55       1.38018084      -2.94318867       2.92750883
C        3.42757541       6.42691531       5.88267607       56       0.13395336      -0.63202828      -0.74322408
C        6.18852278       1.98916273       0.14283772       57       1.24644208       2.64492750      -1.58029747
C        9.35475958      10.02575769      10.57445481       58       0.37781397       1.82275414      -0.72992992
C       10.04145273       9.57196901       2.78942796       59       0.34022751       0.99438083       0.73676926
C        9.02496660       2.04625306       3.61551435       60      -2.18832684       0.85774255       3.43096614
C       14.22957371      10.21308287       6.20602407       61      -0.35514152       0.48438528       0.17154761
C       12.51482729       5.16912442       6.95297224       62      -0.64597321      -2.41511154       2.44600630
C        7.96922059       6.59718222      12.58864822       63      -0.20383328      -1.62117708      -0.12477657
C        8.56133910       7.77701458      10.54827836       64      -1.32507265      -3.57837868      -0.04900995
C        9.45383975       8.45842766       2.09915948       65       0.91261703       0.49967319      -0.26492974
C       10.06408987       8.18981012       0.86001214       66      -0.45279595      -0.29967147      -0.07945208
C        9.64791861       7.11304109       0.09273471       67       0.33637500       0.08243813      -0.75919199
N        8.22177501      11.19781278       6.93486386       68      -0.30058151      -0.71224850      -0.16763744
N        7.71682945       4.14342687       6.38975630       69      -0.97148466      -0.38206157      -0.00997920
N        4.17894704       6.26263992       9.60399974       70      -1.19919801       2.30309010      -2.19155192
N        5.70150937       1.06969145       0.63069712       71      -0.89442229      -1.82007515       1.01207626
N        9.60967180      11.03961837      10.00575019       72      -0.53529465      -1.77145970       0.77019477
N       10.60402015      10.49552988       3.26190575       73      -0.57871574      -0.96599174      -0.65287042
N        9.64487964       1.79508586       2.69946409       74       2.13712263      -0.86196816      -3.26465845
N       14.23290103      11.28288617       6.68082021       75       0.08661073       0.06967922      -0.11556153
N        1.47497931       4.31095800       7.75587205       76       0.25634640       0.72855622      -1.21237016
O        8.07890222       8.97016878       4.52524297       77      -0.04443176      -0.55146307      -0.71616507
O        6.35819786      13.71837420       8.74715153       78       1.01341438      -0.68073136      -0.86682141
O       10.43242234      11.07700342       6.21963479       79      -0.87046403       0.12495575       0.47380245
O        6.40919749       4.89045015       8.70302192       80      -0.92692471      -1.37039423      -0.52567065
O        3.86809564       8.92913160       4.28790966       81       0.52676374       0.61782116       1.00751770
O        7.74272308       6.74156359       4.73449790       82       0.04775368       0.13874815      -0.41630679
O        9.92217294       8.52422733       6.58595935       83       0.16621178       0.04203628      -0.35075632
O       10.05993697       6.33237485       6.14927254       84      -1.02031791      -1.60359550      -0.49484098
O        7.83437304       8.75728771       8.52371052       85      -0.36223918       0.79890513      -0.46823454
O        8.62580400       6.66984517       8.52467541       86       0.62690848      -2.41069651      -1.43196952
O        5.88826562       9.01747389       6.33128399       87       0.07354693       0.13807544      -0.04448346
O        5.96974533       6.80186320       6.88064964       88      -0.32283723       1.06199706      -0.42836833
O       11.54552621      10.19990893      12.08771242       89      -0.56576741      -0.11632209       0.64307338
90
Lattice="10.88024281 0.0 0.0 4.205821677417356 11.90483648468866 0.0 1.1864188114764487 3.452206330816405 13.12550492277969" Properties=species:S:1:pos:R:3:spacegroup_kinds:I:1:forces:R:3 spacegroup="P 1" unit_cell=conventional occupancy="_JSON {\"0\": {\"Zn\": 1}, \"1\": {\"Zn\": 1}, \"2\": {\"H\": 1}, \"3\": {\"H\": 1}, \"4\": {\"H\": 1}, \"5\": {\"H\": 1}, \"6\": {\"H\": 1}, \"7\": {\"H\": 1}, \"8\": {\"H\": 1}, \"9\": {\"H\": 1}, \"10\": {\"H\": 1}, \"11\": {\"H\": 1}, \"12\": {\"H\": 1}, \"13\": {\"H\": 1}, \"14\": {\"H\": 1}, \"15\": {\"H\": 1}, \"16\": {\"H\": 1}, \"17\": {\"H\": 1}, \"18\": {\"H\": 1}, \"19\": {\"H\": 1}, \"20\": {\"H\": 1}, \"21\": {\"H\": 1}, \"22\": {\"H\": 1}, \"23\": {\"C\": 1}, \"24\": {\"C\": 1}, \"25\": {\"C\": 1}, \"26\": {\"C\": 1}, \"27\": {\"C\": 1}, \"28\": {\"C\": 1}, \"29\": {\"C\": 1}, \"30\": {\"C\": 1}, \"31\": {\"C\": 1}, \"32\": {\"C\": 1}, \"33\": {\"C\": 1}, \"34\": {\"C\": 1}, \"35\": {\"C\": 1}, \"36\": {\"C\": 1}, \"37\": {\"C\": 1}, \"38\": {\"C\": 1}, \"39\": {\"C\": 1}, \"40\": {\"C\": 1}, \"41\": {\"C\": 1}, \"42\": {\"C\": 1}, \"43\": {\"C\": 1}, \"44\": {\"C\": 1}, \"45\": {\"C\": 1}, \"46\": {\"C\": 1}, \"47\": {\"C\": 1}, \"48\": {\"C\": 1}, \"49\": {\"C\": 1}, \"50\": {\"C\": 1}, \"51\": {\"C\": 1}, \"52\": {\"C\": 1}, \"53\": {\"C\": 1}, \"54\": {\"C\": 1}, \"55\": {\"C\": 1}, \"56\": {\"C\": 1}, \"57\": {\"C\": 1}, \"58\": {\"C\": 1}, \"59\": {\"C\": 1}, \"60\": {\"C\": 1}, \"61\": {\"C\": 1}, \"62\": {\"C\": 1}, \"63\": {\"C\": 1}, \"64\": {\"C\": 1}, \"65\": {\"C\": 1}, \"66\": {\"C\": 1}, \"67\": {\"C\": 1}, \"68\": {\"N\": 1}, \"69\": {\"N\": 1}, \"70\": {\"N\": 1}, \"71\": {\"N\": 1}, \"72\": {\"N\": 1}, \"73\": {\"N\": 1}, \"74\": {\"N\": 1}, \"75\": {\"N\": 1}, \"76\": {\"N\": 1}, \"77\": {\"O\": 1}, \"78\": {\"O\": 1}, \"79\": {\"O\": 1}, \"80\": {\"O\": 1}, \"81\": {\"O\": 1}, \"82\": {\"O\": 1}, \"83\": {\"O\": 1}, \"84\": {\"O\": 1}, \"85\": {\"O\": 1}, \"86\": {\"O\": 1}, \"87\": {\"O\": 1}, \"88\": {\"O\": 1}, \"89\": {\"O\": 1}}" energy=-646.087646484375 free_energy=-646.087646484375 stress="0.0013727443292737007 -0.0003506403008941561 0.0015137455193325877 -0.0003506403008941561 -0.0006381662096828222 -0.0054012201726436615 0.0015137455193325877 -0.0054012201726436615 0.0029505682177841663" pbc="T T T"
Zn       7.87722370       9.26375360       6.51720014        0       0.21654962      -0.74136680       0.21699564
Zn       7.91100234       6.14841118       6.71711624        1       0.20188914       0.46849176      -0.01689730
H       12.02383456       9.47433566       5.32758103        2      -0.46641362       0.80233276      -0.03162680
H        4.05182830       3.62195577       9.03289312        3      -0.37995920       0.00139938       0.08943577
H        9.16169072       4.45101581       4.98634550        4      -0.74666411      -0.98721755       0.14549571
H       11.35524086      12.46698247       4.85993592        5      -0.04605600       1.58519423       0.80137134
H       12.10854376       8.98255685       7.97007824        6      -0.08919618       0.77299392      -0.03339228
H        3.52322858       9.00285733       8.29624207        7      -0.02606706      -1.01358640      -0.46579397
H       12.34806438       5.87628430       5.04874500        8      -0.06021533      -0.46202081      -0.36895692
H        3.75581443       6.42131072       4.79672874        9      -0.29726762       0.01153745       0.50975800
H       12.13203703      10.90136418      11.84583364       10       1.68662906       2.03566885      -0.61974049
H        1.95556324       2.74042029       8.40787405       11       0.01509529       0.57034022      -0.04453252
H       10.29857130      10.05020226       6.28132044       12      -0.31577283       1.37200713       0.15357953
H        4.03108491       5.60495674       6.37875880       13      -0.88922942       0.93190730      -0.58796632
H        5.62994671       5.28557186       9.17534631       14       0.26766512       0.48473495       0.28343320
H        4.77751485       9.29248818       4.44119079       15       0.14664440      -0.16684163      -0.29852700
H       12.11919547       7.30493413       8.55625061       16       0.37129456       0.76523441      -0.96905708
H        7.82466334       5.71044849      10.62526799       17      -0.46372592      -1.19947648      -0.97021180
H        6.26816154       3.54306910       2.02888399       18       0.68203783       0.81831521       0.03654170
H       10.90066622       8.83618858       0.52091888       19      -0.91717160      -0.71419543       0.45592123
H       12.52709327       8.15649728       4.23923294       20       0.21520311       0.35138097       0.62317348
H        6.84891272       5.58362887       3.33273628       21      -0.32453859      -0.15029781       0.68581349
H        6.28753271      11.33390252       7.69889547       22      -0.96604621      -0.85521138       0.16271625
C        8.05135434       7.79681768       4.02806315       23      -0.28459927      -1.44044292       2.23524380
C        8.54172521       6.36003921       0.46316205       24      -1.48540926      -1.88696718       1.07953334
C        8.06410102       6.44099011       1.85709829       25       0.72825813       1.74757195      -1.17344308
C       10.54643060       7.45291865       6.31075297       26       0.62329417       0.01427613       0.70017058
C        9.11152442       8.77779502      12.73206841       27      -0.29519150      -0.35007045       0.01032198
C        7.22334311       4.26587866       0.24804492       28       0.76689547       0.59473020      -0.16714357
C        6.92371745       4.38601044       1.66619711       29      -2.91139269      -7.62426853      -4.91392279
C        7.15857062       5.41328020       2.32314563       30       2.61448622       6.99877501       4.02023554
C        9.02085299       8.80178596      11.27240460       31       1.49050283       3.75770044       2.00285196
C        8.11945857       6.54977049      11.17526308       32       0.87475336       3.46355438       2.35139275
C        8.50200108       7.60967468       2.63253522       33      -1.28878593      -2.40354347      -0.38985983
C        3.84567662       7.77547826       6.49155590       34      -0.69124860       0.16671470      -0.78490579
C        7.39299348      13.15941120       8.02058121       35      -2.17539263      -1.82502866       0.33421367
C        8.40337501       3.68994908       5.35162625       36       1.64568543       1.82583451       0.25736263
C        8.27742164       2.41705088       4.78274072       37      -0.99885124       0.36752152       0.61117458
C        8.37505673       7.71065212       9.08091418       38      -2.51120901       6.54456568       0.81342220
C        7.28308990       1.60463517       5.32668156       39       0.43190548      -2.35101318      -1.04515505
C        6.52848175       2.00095704       6.42599830       40      -1.30950475       0.81935120       0.24038467
C        6.69050036       3.33510924       6.93192504       41       1.89908671       0.35366115      -0.18548837
C        9.56796820      13.16191350       6.89438916       42       0.17508572       1.10325491       0.70994377
C        8.60277934      13.78414625       7.72902438       43       0.88280720       2.20503235      -0.16078502
C        4.67584273       3.19770363       8.25480687       44       0.74537653      -0.08315134       0.55290830
C        3.20339709       7.98345666       7.87364511       45      -0.14947832       1.69636559       0.23208748
C        5.89868708       3.83011386       8.02236232       46       0.63744569       0.03450787      -0.31591994
C        9.36030334      11.80465380       6.67920676       47       2.45529079      -0.57266670      -1.09226418
C        7.21984167      11.81314096       7.57770692       48       1.80518341       2.57442570      -0.07674223
C        5.39061294       7.87343842       6.57119974       49      -1.18635774      -1.67850399       0.00466233
C       12.62829344       8.59585745       5.26623153       50       0.26350427      -1.76139927       0.65404171
C        3.23552095       8.91778620       5.59018610       51       0.25640661      -1.76132560      -2.36593723
C       12.54403050       8.02294622       7.76017526       52      -0.67731839      -2.35781598       0.52089012
C       12.78900137       6.18170935       5.99488032       53       0.18432033       1.57683361      -0.72471893
C       12.10244363       7.51422023       6.33992718       54       0.44673267       1.94124389      -0.20519917
C        3.71600718       7.03468087       8.82429434       55       1.67453969      -3.41525602       3.34098840
C        3.41157388       6.42564643       5.86563906       56       1.76618433      -0.79197532       0.26582494
C        6.20003028       2.01634247       0.15614508       57       0.15188809       0.33362809      -0.51665747
C        9.34180375      10.04012787      10.59872896       58       0.71975338       2.51325202      -1.42095220
C       10.06693796       9.56164763       2.77965258       59       0.74070376       2.13413477       1.29670060
C        9.01524360       2.03904801       3.63857464       60      -0.07869775       0.17844447       0.43229029
C       14.25292667      10.20265714       6.20284276       61      -0.21880829       0.79119790       0.17663336
C       12.53271922       5.17266701       6.95646388       62      -0.26125777      -0.17486554       0.39368957
C        7.98991956       6.58965734      12.59495136       63      -0.27397570      -0.75508994      -0.66682553
C        8.54119688       7.80166712      10.54436062       64      -1.38991117      -5.33662224      -0.24843392
C        9.46467818       8.45451716       2.08107844       65       0.08984730       0.96800798       1.37313545
C       10.04512554       8.18098053       0.88192985       66       1.99711823       0.51990139      -2.10862350
C        9.66319921       7.09640352       0.11023111       67       0.85068291       0.72308326      -1.08696151
N        8.23257702      11.21284120       6.90991660       68      -2.58840060      -1.43094206       0.76233798
N        7.73136272       4.15272360       6.41863454       69      -1.55425870      -1.48085296      -0.20171861
N        4.18873118       6.23703412       9.61575536       70      -1.47851920       2.74931717      -2.58222246
N        5.68575900       1.08532456       0.64650114       71       0.06178420      -0.01403211       0.08299133
N        9.60399567      11.06229254      10.02643570       72      -0.77547145      -2.54237127       1.27173364
N       10.60634267      10.50629117       3.27097777       73      -1.08741295      -2.10782051      -1.24312210
N        9.66617077       1.76919050       2.71633868       74       0.47785282      -0.23108843      -0.84021187
N       14.25415780      11.27458939       6.65755524       75       0.09803205       0.68725955       0.18256466
N        1.49391470       4.33161058       7.73467463       76      -0.17716017      -1.61009312       0.92399442
O        8.10378992       8.97872876       4.51509630       77      -0.19593298      -0.33279794      -0.38516608
O        6.33248237      13.72804864       8.72535754       78       1.09766209      -0.69057941      -0.56593859
O       10.40843419      11.09970076       6.23072133       79       0.07023841      -1.27231479       0.00299060
O        6.43507280       4.91091930       8.72656489       80      -1.55576777      -1.79299164      -0.75176227
O        3.89300733       8.90445315       4.26221216       81      -0.41849613       0.60148752       1.65371895
O        7.72401384       6.72264449       4.75455936       82       0.57260782       2.05508327      -1.91315722
O        9.90139477       8.52914814       6.59728180       83       0.45397729       0.16773376      -0.40838146
O       10.03257086       6.32554003       6.16611797       84      -0.47828427      -0.46294242      -0.25425509
O        7.81221274       8.77739041       8.51616002       85       0.77449816      -1.07935762       0.61250401
O        8.60070777       6.68322837       8.53173952       86       1.40461838      -4.88892698      -2.45383286
O        5.87032861       8.99520268       6.30161325       87       1.05395222       1.06807148       0.02230093
O        5.97725197       6.78516072       6.85622175       88      -0.09856279       0.78115028       0.01611266
O       11.56375721      10.21548416      12.09585475       89      -2.20199037      -2.23188114       1.35082221
90
Lattice="10.88024281 0.0 0.0 4.205821677417356 11.90483648468866 0.0 1.1864188114764487 3.452206330816405 13.12550492277969" Properties=species:S:1:pos:R:3:spacegroup_kinds:I:1:forces:R:3 spacegroup="P 1" unit_cell=conventional occupancy="_JSON {\"0\": {\"Zn\": 1}, \"1\": {\"Zn\": 1}, \"2\": {\"H\": 1}, \"3\": {\"H\": 1}, \"4\": {\"H\": 1}, \"5\": {\"H\": 1}, \"6\": {\"H\": 1}, \"7\": {\"H\": 1}, \"8\": {\"H\": 1}, \"9\": {\"H\": 1}, \"10\": {\"H\": 1}, \"11\": {\"H\": 1}, \"12\": {\"H\": 1}, \"13\": {\"H\": 1}, \"14\": {\"H\": 1}, \"15\": {\"H\": 1}, \"16\": {\"H\": 1}, \"17\": {\"H\": 1}, \"18\": {\"H\": 1}, \"19\": {\"H\": 1}, \"20\": {\"H\": 1}, \"21\": {\"H\": 1}, \"22\": {\"H\": 1}, \"23\": {\"C\": 1}, \"24\": {\"C\": 1}, \"25\": {\"C\": 1}, \"26\": {\"C\": 1}, \"27\": {\"C\": 1}, \"28\": {\"C\": 1}, \"29\": {\"C\": 1}, \"30\": {\"C\": 1}, \"31\": {\"C\": 1}, \"32\": {\"C\": 1}, \"33\": {\"C\": 1}, \"34\": {\"C\": 1}, \"35\": {\"C\": 1}, \"36\": {\"C\": 1}, \"37\": {\"C\": 1}, \"38\": {\"C\": 1}, \"39\": {\"C\": 1}, \"40\": {\"C\": 1}, \"41\": {\"C\": 1}, \"42\": {\"C\": 1}, \"43\": {\"C\": 1}, \"44\": {\"C\": 1}, \"45\": {\"C\": 1}, \"46\": {\"C\": 1}, \"47\": {\"C\": 1}, \"48\": {\"C\": 1}, \"49\": {\"C\": 1}, \"50\": {\"C\": 1}, \"51\": {\"C\": 1}, \"52\": {\"C\": 1}, \"53\": {\"C\": 1}, \"54\": {\"C\": 1}, \"55\": {\"C\": 1}, \"56\": {\"C\": 1}, \"57\": {\"C\": 1}, \"58\": {\"C\": 1}, \"59\": {\"C\": 1}, \"60\": {\"C\": 1}, \"61\": {\"C\": 1}, \"62\": {\"C\": 1}, \"63\": {\"C\": 1}, \"64\": {\"C\": 1}, \"65\": {\"C\": 1}, \"66\": {\"C\": 1}, \"67\": {\"C\": 1}, \"68\": {\"N\": 1}, \"69\": {\"N\": 1}, \"70\": {\"N\": 1}, \"71\": {\"N\": 1}, \"72\": {\"N\": 1}, \"73\": {\"N\": 1}, \"74\": {\"N\": 1}, \"75\": {\"N\": 1}, \"76\": {\"N\": 1}, \"77\": {\"O\": 1}, \"78\": {\"O\": 1}, \"79\": {\"O\": 1}, \"80\": {\"O\": 1}, \"81\": {\"O\": 1}, \"82\": {\"O\": 1}, \"83\": {\"O\": 1}, \"84\": {\"O\": 1}, \"85\": {\"O\": 1}, \"86\": {\"O\": 1}, \"87\": {\"O\": 1}, \"88\": {\"O\": 1}, \"89\": {\"O\": 1}}" energy=-644.3416748046875 free_energy=-644.3416748046875 stress="0.0008633715333417058 -0.0015360278775915504 0.0028612983878701925 -0.0015360278775915504 -0.0013576034689322114 -0.0044374531134963036 0.0028612983878701925 -0.0044374531134963036 0.001944653457030654" pbc="T T T"
Zn       7.85480341       9.27191508       6.53822929        0       0.51756716      -0.80032706      -0.16614513
Zn       7.92984783       6.12986026       6.72460007        1       0.04172486       0.49384788      -0.26091385
H       12.01041068       9.49218187       5.35186112        2       0.39377326      -0.49183533      -0.18836592
H        4.02491360       3.60664107       9.03441106        3      -0.02763373       0.09911323      -0.00642508
H        9.17311190       4.42204363       4.96557203        4      -0.38003919      -0.31490141       0.11532941
H       11.36659631      12.47565052       4.84221334        5      -0.27473995       1.05943775       0.58072513
H       12.09629990       8.99178033       7.95082700        6      -0.26165688       0.96868849       0.02154617
H        3.53998568       8.99025903       8.30304753        7      -0.08795667      -0.82715076      -0.35119331
H       12.37113431       5.88530882       5.03519169        8      -0.33879161      -0.47462308      -0.33936349
H        3.75381526       6.39178817       4.76781963        9      -0.54131252       0.15501785       0.79825091
H       12.11050370      10.88774090      11.85517549       10       1.55384064       1.79010916      -0.68608916
H        1.97110406       2.73533669       8.40149615       11      -0.21802038       1.53196919      -0.29369619
H       10.30317337      10.05193966       6.26533005       12      -0.43999738       1.72732425       0.15824533
H        4.01936746       5.63355481       6.36414061       13      -0.79940480       0.43762034      -0.41757420
H        5.63677322       5.26032696       9.15154777       14       0.64641428       0.37895057       0.10706967
H        4.79299998       9.30636679       4.43390046       15      -1.33112025      -0.81159192      -0.57258999
H       12.09398148       7.28037430       8.52620107       16       0.42526841       1.18525267      -1.13134646
H        7.81833580       5.73000409      10.65370591       17      -0.49702436      -1.37555456      -1.14774323
H        6.25374155       3.51631489       2.00245524       18       0.90319395       1.25996590       0.11634774
H       10.89945827       8.81079637       0.52810488       19       0.39036992       0.30812755      -0.14676441
H       12.55006469       8.15059070       4.21053673       20       0.11632997       0.55975008       1.43707693
H        6.84714274       5.55702849       3.30540111       21      -0.46037674      -0.01573529       1.44300985