66
Lattice="7.60945637 0.0 0.0 0.18696003276856984 9.582321891282223 0.0 1.3045967710954982 2.558183642065109 9.817562664786545" Properties=species:S:1:pos:R:3:spacegroup_kinds:I:1:forces:R:3 spacegroup="P 1" unit_cell=conventional occupancy="_JSON {\"0\": {\"Cd\": 1}, \"1\": {\"Cd\": 1}, \"2\": {\"H\": 1}, \"3\": {\"H\": 1}, \"4\": {\"H\": 1}, \"5\": {\"H\": 1}, \"6\": {\"H\": 1}, \"7\": {\"H\": 1}, \"8\": {\"H\": 1}, \"9\": {\"H\": 1}, \"10\": {\"H\": 1}, \"11\": {\"H\": 1}, \"12\": {\"H\": 1}, \"13\": {\"H\": 1}, \"14\": {\"H\": 1}, \"15\": {\"H\": 1}, \"16\": {\"H\": 1}, \"17\": {\"H\": 1}, \"18\": {\"H\": 1}, \"19\": {\"H\": 1}, \"20\": {\"H\": 1}, \"21\": {\"H\": 1}, \"22\": {\"H\": 1}, \"23\": {\"H\": 1}, \"24\": {\"H\": 1}, \"25\": {\"H\": 1}, \"26\": {\"H\": 1}, \"27\": {\"H\": 1}, \"28\": {\"C\": 1}, \"29\": {\"C\": 1}, \"30\": {\"C\": 1}, \"31\": {\"C\": 1}, \"32\": {\"C\": 1}, \"33\": {\"C\": 1}, \"34\": {\"C\": 1}, \"35\": {\"C\": 1}, \"36\": {\"C\": 1}, \"37\": {\"C\": 1}, \"38\": {\"C\": 1}, \"39\": {\"C\": 1}, \"40\": {\"C\": 1}, \"41\": {\"C\": 1}, \"42\": {\"C\": 1}, \"43\": {\"C\": 1}, \"44\": {\"C\": 1}, \"45\": {\"C\": 1}, \"46\": {\"C\": 1}, \"47\": {\"C\": 1}, \"48\": {\"C\": 1}, \"49\": {\"C\": 1}, \"50\": {\"C\": 1}, \"51\": {\"C\": 1}, \"52\": {\"N\": 1}, \"53\": {\"N\": 1}, \"54\": {\"N\": 1}, \"55\": {\"N\": 1}, \"56\": {\"N\": 1}, \"57\": {\"N\": 1}, \"58\": {\"N\": 1}, \"59\": {\"N\": 1}, \"60\": {\"N\": 1}, \"61\": {\"N\": 1}, \"62\": {\"Cl\": 1}, \"63\": {\"Cl\": 1}, \"64\": {\"Cl\": 1}, \"65\": {\"Cl\": 1}}" energy=-412.6263122558594 free_energy=-412.6263122558594 stress="-0.008051352575421333 -0.004619803745299578 0.0039564333856105804 -0.004619803745299578 -0.0016254932852461934 0.00046366508468054235 0.0039564333856105804 0.00046366508468054235 -0.0024661084171384573" pbc="T T T"
Cd       3.36236416       6.64942350       3.41677810        0      -0.00940117       0.31086951      -0.17459495
Cd       5.73791650       5.49162296       6.39985185        1       0.00426181      -0.31353346       0.17694506
H        7.56591817       3.05575047       3.09026565        2       0.06110342      -0.01432301       0.00354824
H        1.53514684       9.08492747       6.72508278        3      -0.07169924       0.03162460      -0.00160669
H        5.50181795       1.96135904       3.91679650        4      -0.07270695      -0.05984159       0.04525025
H        3.59711863      10.17967212       5.89946626        5       0.08613910       0.05083577      -0.04301467
H        5.58350006       9.10872732       4.34482359        6      -0.01791184       0.08793159       0.04483121
H        3.51562867       3.03402662       5.46982258        7      -0.00547455      -0.11257155      -0.03689056
H        7.60351768       7.65879143       4.03821579        8      -0.07171453      -0.01816077      -0.01519833
H        1.49657931       4.48280610       5.77884950        9       0.07890669      -0.00044883       0.01411798
H        2.39325433       3.44885612       2.63026033       10      -0.09264144      -0.00662617      -0.11594446
H        6.70672814       8.69320940       7.18619631       11       0.11017707      -0.01201884       0.10349786
H        3.97012576       2.61437724       2.45107794       12       0.06226514      -0.18706360      -0.06332551
H        5.13042590       9.52649424       7.36380220       13      -0.05694897       0.17722844       0.06732233
H        0.68458204       3.10241749       0.55645352       14       0.02024490      -0.09266241       0.01319239
H        8.41469612       9.04093222       9.25893852       15      -0.00711724       0.08520046      -0.02007638
H        2.61753368       5.75767490       7.67582867       16      -0.02869795      -0.04062355       0.00307047
H        6.48125162       6.38376378       2.13858891       17       0.05630510       0.03647354       0.02356198
H        5.53035206       2.99808299       1.01568376       18      -0.03891389      -0.06045682      -0.00484718
H        3.56813151       9.14343344       8.80069492       19       0.06520633       0.06927405       0.01463674
H        7.15282816       5.33658061       9.11293135       20       0.00398711       0.01293611      -0.06669636
H        1.94610706       6.80585866       0.70331442       21       0.03580350       0.00704408       0.02462241
H        6.63591998       2.85320291       9.36063939       22       0.03087003       0.00796784      -0.02651995
H        2.46245481       9.28919245       0.45452505       23      -0.03175098      -0.01224343       0.02143794
H        5.08805290       0.51551378       1.28202806       24      -0.05809682      -0.01731315      -0.03445014
H        4.01202028      11.62580788       8.53354474       25       0.04750979       0.02041566       0.03947335
H        6.69033096       0.80683766       0.57027378       26      -0.03859762      -0.00925856       0.00939621
H        2.40829110      11.33564612       9.24498008       27       0.04288120      -0.00432900      -0.01195504
C        1.17666654       9.33942587       3.32883311       28       0.01610133      -0.31925660       0.05957938
C        7.92098090       2.80241295       6.48432230       29       0.04526880       0.25412232      -0.05325878
C        1.01996647       1.14059018       3.04661636       30      -0.32554376      -0.16646761       0.07353354
C        8.07906729      10.99981904       6.76713109       31       0.24954115       0.23130125      -0.07934079
C        7.52408430       1.97535016       3.24396363       32       0.13089913      -0.16019669      -0.05355789
C        1.57438399      10.16594516       6.57136021       33      -0.08114453       0.13145302       0.04773998
C        6.37571595       1.34601716       3.71265472       34      -0.24730335      -0.21382971       0.15235013
C        2.72413083      10.79531005       6.10409403       35       0.21362370       0.19865496      -0.17027381
C        6.51036569       9.54239047       3.97115151       36      -0.21422288       0.23534155       0.13373680
C        2.58842087       2.59768542       5.84247274       37       0.26805830      -0.20320210      -0.12177222
C        7.61933501       8.72016221       3.79690929       38       0.16086698       0.15618417      -0.15350589
C        1.48094213       3.42042447       6.01837974       39      -0.24066949      -0.12195766       0.14993079
C        2.91179551       2.59635821       2.16603185       40      -0.26640427      -0.04955634       0.17339170
C        6.18879496       9.54488610       7.65048769       41       0.18481791       0.05578339      -0.20294163
C        1.62249969       2.96097783       0.03524179       42       0.01040936      -0.02318520      -0.08749712
C        7.47729908       9.18009620       9.78071708       43      -0.07682586       0.03197664       0.01058324
C        3.25585671       5.56115207       8.52785983       44      -0.03392383       0.00049517       0.03336928
C        5.84454648       6.58058950       1.28681432       45      -0.02575675       0.00111639      -0.00103716
C        5.12682971       5.17955404       9.62104544       46       0.09403130      -0.23461452      -0.23831373
C        3.97091667       6.96411581       0.19603533       47       0.06693476       0.16926721       0.21813437
C        5.26184586       2.38457991       0.13773555       48       0.14087445       0.07516509      -0.06384552
C        3.84058032       9.75756528       9.67790179       49      -0.33447328      -0.07975462       0.10002087
C        5.60919765       0.91390443       0.39978214       50      -0.15044177       0.04652856       0.01863483
C        3.48941235      11.22773646       9.41550349       51       0.18205038      -0.03509514      -0.02132820
N        2.44442841       8.84544435       3.11157812       52      -0.04998520      -0.51668048       0.27029228
N        6.65313388       3.29515161       6.70207227       53       0.08808044       0.53653991      -0.26158017
N        3.23510292       9.81501030       2.71469417       54      -0.04229196       0.16724908      -0.23911263
N        5.86517686       2.32529308       7.10158992       55      -0.05863477      -0.14125103       0.23010419
N        2.31877499       1.37243015       2.66102574       56       1.10002267       0.13999903       0.22122796
N        6.77786523      10.76860486       7.15141663       57      -0.96539974      -0.17853692      -0.18687458
N        2.80639199       2.71439564       0.72069899       58       0.03719379       0.51006937      -0.06614047
N        6.29098880       9.42408240       9.09430268       59       0.02634902      -0.46370173       0.14684969
N        4.62225751       5.35240128       8.39539199       60       0.06031549       0.05226693      -0.23188061
N        4.47764894       6.78907789       1.42094908       61      -0.06587696      -0.03055426       0.20848319
Cl       1.22477137       5.46541482       3.00606673       62       0.00530245       0.24228764       0.00748945
Cl       7.87429880       6.67500439       6.80918906       63       0.00065509      -0.23789531      -0.00573287
Cl       4.03215192       7.47430398       5.76159364       64      -0.09962724      -0.19754344      -0.15751126
Cl       5.07016633       4.66547598       4.05573057       65       0.09314212       0.20114930       0.15026893
66
Lattice="7.60945637 0.0 0.0 0.18696003276856984 9.582321891282223 0.0 1.3045967710954982 2.558183642065109 9.817562664786545" Properties=species:S:1:pos:R:3:spacegroup_kinds:I:1:forces:R:3 spacegroup="P 1" unit_cell=conventional occupancy="_JSON {\"0\": {\"Cd\": 1}, \"1\": {\"Cd\": 1}, \"2\": {\"H\": 1}, \"3\": {\"H\": 1}, \"4\": {\"H\": 1}, \"5\": {\"H\": 1}, \"6\": {\"H\": 1}, \"7\": {\"H\": 1}, \"8\": {\"H\": 1}, \"9\": {\"H\": 1}, \"10\": {\"H\": 1}, \"11\": {\"H\": 1}, \"12\": {\"H\": 1}, \"13\": {\"H\": 1}, \"14\": {\"H\": 1}, \"15\": {\"H\": 1}, \"16\": {\"H\": 1}, \"17\": {\"H\": 1}, \"18\": {\"H\": 1}, \"19\": {\"H\": 1}, \"20\": {\"H\": 1}, \"21\": {\"H\": 1}, \"22\": {\"H\": 1}, \"23\": {\"H\": 1}, \"24\": {\"H\": 1}, \"25\": {\"H\": 1}, \"26\": {\"H\": 1}, \"27\": {\"H\": 1}, \"28\": {\"C\": 1}, \"29\": {\"C\": 1}, \"30\": {\"C\": 1}, \"31\": {\"C\": 1}, \"32\": {\"C\": 1}, \"33\": {\"C\": 1}, \"34\": {\"C\": 1}, \"35\": {\"C\": 1}, \"36\": {\"C\": 1}, \"37\": {\"C\": 1}, \"38\": {\"C\": 1}, \"39\": {\"C\": 1}, \"40\": {\"C\": 1}, \"41\": {\"C\": 1}, \"42\": {\"C\": 1}, \"43\": {\"C\": 1}, \"44\": {\"C\": 1}, \"45\": {\"C\": 1}, \"46\": {\"C\": 1}, \"47\": {\"C\": 1}, \"48\": {\"C\": 1}, \"49\": {\"C\": 1}, \"50\": {\"C\": 1}, \"51\": {\"C\": 1}, \"52\": {\"N\": 1}, \"53\": {\"N\": 1}, \"54\": {\"N\": 1}, \"55\": {\"N\": 1}, \"56\": {\"N\": 1}, \"57\": {\"N\": 1}, \"58\": {\"N\": 1}, \"59\": {\"N\": 1}, \"60\": {\"N\": 1}, \"61\": {\"N\": 1}, \"62\": {\"Cl\": 1}, \"63\": {\"Cl\": 1}, \"64\": {\"Cl\": 1}, \"65\": {\"Cl\": 1}}" energy=-412.6591491699219 free_energy=-412.6591491699219 stress="-0.00683292280882597 -0.004507287405431271 0.0035185145679861307 -0.004507287405431271 -0.0017897109501063824 0.00024664661032147706 0.0035185145679861307 0.00024664661032147706 -0.0024580126628279686" pbc="T T T"
Cd       3.36150303       6.65170632       3.41380615        0      -0.00986038       0.29804516      -0.14560875
Cd       5.73817726       5.48865868       6.40193973        1       0.00685537      -0.29302090       0.15142974
H        7.56586958       3.05580785       3.08894278        2       0.07289558      -0.08724171       0.01218241
H        1.53328898       9.08718040       6.72365222        3      -0.07857734       0.04812303      -0.00587110
H        5.49918293       1.96001699       3.91795044        4      -0.04352918      -0.05930596       0.02677737
H        3.59850552      10.18193816       5.89758244        5       0.08434810       0.03117735      -0.04114579
H        5.58131427       9.11115676       4.34596634        6      -0.02020335       0.06609935       0.05380552
H        3.51565297       3.03190095       5.46835748        7       0.06537575      -0.05941144      -0.06949860
H        7.60080484       7.65907382       4.03837941        8      -0.05045956       0.05736405      -0.03748652
H        1.49782895       4.48429327       5.77827625        9       0.06296522      -0.12122315       0.04078993
H        2.39030481       3.45053860       2.62740803       10      -0.10284834       0.01330970      -0.07859868
H        6.70748499       8.69129205       7.18776861       11       0.11307412       0.00900532       0.07765479
H        3.96908512       2.61169516       2.45054571       12       0.03039145      -0.16337244      -0.06644125
H        5.12771287       9.52894344       7.36529975       13       0.04285747       0.16132160       0.06460749
H        0.68482547       3.10230115       0.55550630       14       0.02172056      -0.08863185      -0.00009914
H        8.41512112       9.04359185       9.25766004       15      -0.06932348       0.08656344       0.01659269
H        2.61612422       5.75759924       7.67414877       16      -0.03593332      -0.03808758       0.00001068
H        6.48061870       6.38615599       2.13828743       17       0.04234300       0.03955642      -0.01736682
H        5.52848491       2.99815875       1.01391118       18      -0.02392296      -0.03961517       0.01427708
H        3.56830670       9.14396603       8.80032101       19       0.04459481       0.02917845      -0.02647039
H        7.15257876       5.33857697       9.11099874       20       0.02523307       0.01716559      -0.08056007
H        1.94552827       6.80636269       0.70361002       21       0.00373764      -0.00878605       0.04025069
H        6.63523923       2.85455241       9.35882595       22       0.02049916      -0.00178541      -0.04769142
H        2.46125303       9.28949384       0.45337722       23      -0.01603062      -0.00402542       0.05296807
H        5.08527756       0.51539798       1.27965655       24      -0.05904271      -0.00371456      -0.04209713
H        4.01185606      11.62770184       8.53293097       25       0.05311136       0.00299562       0.04735861
H        6.68824339       0.80752656       0.56898357       26      -0.05879682      -0.01273960       0.00887512
H        2.40720739      11.33600845       9.24335410       27       0.12025926      -0.00711117       0.00035644
C        1.17644814       9.33702248       3.32700552       28       0.02394092      -0.25604090       0.07064625
C        7.92181283       2.80540218       6.48440597       29      -0.11702022       0.17772648      -0.01115215
C        1.01790916       1.13805662       3.04670952       30      -0.18549618      -0.06279796       0.00508983
C        8.08165262      11.00248503       6.76704175       31       0.01751176       0.24859306      -0.04494649
C        7.52577977       1.97310937       3.24291880       32      -0.03240578      -0.09995006      -0.02324992
C        1.57162922      10.16866855       6.56961402       33       0.10614551       0.09724265       0.01499460
C        6.37288609       1.34374399       3.71124483       34      -0.18675670      -0.04604472       0.13967545
C        2.72607933      10.79811974       6.10170864       35       0.11962169       0.04840817      -0.12264976
C        6.50749580       9.54514378       3.97247036       36      -0.04129745       0.06296586       0.08295068
C        2.59126074       2.59589358       5.83999067       37       0.03771864      -0.08330172      -0.06257939
C        7.62175735       8.72225094       3.79433176       38      -0.13477828       0.05347121      -0.03459239
C        1.47807392       3.41829106       6.01922100       39       0.04891529       0.06728773       0.02498448
C        2.90880734       2.59677533       2.16873709       40      -0.18249044      -0.02184913       0.00083295
C        6.19055584       9.54547029       7.64841747       41       0.01187468       0.06253156      -0.18649167
C        1.62245552       2.96216000       0.03272753       42      -0.04858363      -0.01719157      -0.03008582
C        7.47549648       9.18044490       9.78031238       43      -0.02732700       0.01767419      -0.09438741
C        3.25334328       5.56189525       8.52684284       44       0.14208081      -0.01031448      -0.08339908
C        5.84350337       6.58079988       1.28471624       45      -0.03205970       0.00253745       0.15930815
C        5.12755883       5.17840015       9.61810003       46       0.01416865      -0.16921240      -0.20402645
C        3.97046371       6.96664340       0.19756925       47      -0.01967591       0.11760089       0.16376700
C        5.26277306       2.38629049       0.13537923       48       0.07922322       0.03645325      -0.05039962
C        3.83762317       9.75575940       9.67716186       49      -0.20672601       0.01490688       0.14518619
C        5.60651114       0.91521629       0.39766720       50      -0.08766814       0.04153238       0.04502830
C        3.49083646      11.22753921       9.41524697       51       0.05065598      -0.04580981      -0.07187784
N        2.44161044       8.84245348       3.11356343       52       0.14544262      -0.31062323       0.13504688
N        6.65177918       3.29792039       6.69928290       53       0.05797366       0.40904856      -0.18699583
N        3.23348175       9.81748536       2.71174086       54      -0.08463665      -0.00396916      -0.15876192
N        5.86393848       2.32382258       7.10282683       55       0.00346212       0.03800640       0.13814360
N        2.31928265       1.37420183       2.66016548       56       0.91422963      -0.02397078       0.28838009
N        6.77488097      10.77153506       7.14902904       57      -0.77040112      -0.29201794      -0.16274002
N        2.80417649       2.71715816       0.71782194       58       0.17681527       0.44617975       0.04198712
N        6.28815112       9.42139503       9.09262086       59       0.07982755      -0.40936795       0.23301107
N        4.62471824       5.35384657       8.39241538       60      -0.12257607       0.04869905      -0.16348374
N        4.47550019       6.79022494       1.42357058       61       0.01603854      -0.01943072       0.06756185
Cl       1.22478734       5.46838126       3.00827318       62      -0.00092583       0.23129363       0.00192572
Cl       7.87459846       6.67225894       6.80889713       63       0.00029109      -0.22751573      -0.00209032
Cl       4.02934906       7.47136534       5.75931403       64      -0.09439325      -0.19128150      -0.14772297
Cl       5.07223449       4.66740285       4.05844963       65       0.08754731       0.19669777       0.13411130
66
Lattice="7.60945637 0.0 0.0 0.18696003276856984 9.582321891282223 0.0 1.3045967710954982 2.558183642065109 9.817562664786545" Properties=species:S:1:pos:R:3:spacegroup_kinds:I:1:forces:R:3 spacegroup="P 1" unit_cell=conventional occupancy="_JSON {\"0\": {\"Cd\": 1}, \"1\": {\"Cd\": 1}, \"2\": {\"H\": 1}, \"3\": {\"H\": 1}, \"4\": {\"H\": 1}, \"5\": {\"H\": 1}, \"6\": {\"H\": 1}, \"7\": {\"H\": 1}, \"8\": {\"H\": 1}, \"9\": {\"H\": 1}, \"10\": {\"H\": 1}, \"11\": {\"H\": 1}, \"12\": {\"H\": 1}, \"13\": {\"H\": 1}, \"14\": {\"H\": 1}, \"15\": {\"H\": 1}, \"16\": {\"H\": 1}, \"17\": {\"H\": 1}, \"18\": {\"H\": 1}, \"19\": {\"H\": 1}, \"20\": {\"H\": 1}, \"21\": {\"H\": 1}, \"22\": {\"H\": 1}, \"23\": {\"H\": 1}, \"24\": {\"H\": 1}, \"25\": {\"H\": 1}, \"26\": {\"H\": 1}, \"27\": {\"H\": 1}, \"28\": {\"C\": 1}, \"29\": {\"C\": 1}, \"30\": {\"C\": 1}, \"31\": {\"C\": 1}, \"32\": {\"C\": 1}, \"33\": {\"C\": 1}, \"34\": {\"C\": 1}, \"35\": {\"C\": 1}, \"36\": {\"C\": 1}, \"37\": {\"C\": 1}, \"38\": {\"C\": 1}, \"39\": {\"C\": 1}, \"40\": {\"C\": 1}, \"41\": {\"C\": 1}, \"42\": {\"C\": 1}, \"43\": {\"C\": 1}, \"44\": {\"C\": 1}, \"45\": {\"C\": 1}, \"46\": {\"C\": 1}, \"47\": {\"C\": 1}, \"48\": {\"C\": 1}, \"49\": {\"C\": 1}, \"50\": {\"C\": 1}, \"51\": {\"C\": 1}, \"52\": {\"N\": 1}, \"53\": {\"N\": 1}, \"54\": {\"N\": 1}, \"55\": {\"N\": 1}, \"56\": {\"N\": 1}, \"57\": {\"N\": 1}, \"58\": {\"N\": 1}, \"59\": {\"N\": 1}, \"60\": {\"N\": 1}, \"61\": {\"N\": 1}, \"62\": {\"Cl\": 1}, \"63\": {\"Cl\": 1}, \"64\": {\"Cl\": 1}, \"65\": {\"Cl\": 1}}" energy=-412.68536376953125 free_energy=-412.68536376953125 stress="-0.006394169759005308 -0.0043218666687607765 0.003412722609937191 -0.0043218666687607765 -0.0016426054062321782 0.0001432388526154682 0.003412722609937191 0.0001432388526154682 -0.002074888674542308" pbc="T T T"
Cd       3.36251563       6.65451698       3.41108913        0      -0.01123305       0.27581918      -0.12810996
Cd       5.73584473       5.48650216       6.40329268        1       0.01314695      -0.27560508       0.13979483
H        7.56704932       3.05396883       3.08994196        2       0.06690606      -0.06599580       0.00507415
H        1.53201547       9.08895874       6.72222391        3      -0.07581450       0.04126787      -0.00484961
H        5.49782942       1.95893700       3.91784492        4      -0.09744083      -0.01048397       0.04628799
H        3.59943043      10.18368961       5.89536507        5       0.12084556       0.00121032      -0.05019335
H        5.57888149       9.11324303       4.34707709        6       0.03026442       0.07603323       0.03515898
H        3.51651990       3.02989565       5.46582517        7       0.07134284      -0.03570347      -0.07508475
H        7.59862685       7.66103353       4.03731406        8      -0.06318141       0.05016138      -0.03266596
H        1.49853539       4.48287002       5.77883977        9       0.06535989      -0.05605093       0.02466593
H        2.38772150       3.45203307       2.62481893       10      -0.10047268       0.01376301      -0.06275146
H        6.70862486       8.69118784       7.18844924       11       0.10298720       0.00016560       0.06301905
H        3.96939843       2.60872372       2.44842821       12      -0.03515197      -0.13204026      -0.07120405
H        5.12699921       9.53038680       7.36719175       13       0.01743652       0.14526519       0.03714412
H        0.68541574       3.10241716       0.55459724       14      -0.01902679      -0.08107710       0.01563437
H        8.41284828       9.04541156       9.25758463       15       0.00552601       0.07530652      -0.03368523
H        2.61480907       5.75713386       7.67366790       16      -0.04692690      -0.03192092      -0.02845755
H        6.48033096       6.38867487       2.13652356       17       0.06862520       0.02474071       0.02691473
H        5.52818747       2.99857181       1.01201592       18      -0.02390894      -0.03396510       0.01189884
H        3.56778732       9.14479422       8.79921755       19       0.05703007       0.05619364       0.03694193
H        7.15230820       5.33935209       9.10819967       20       0.03327978       0.01470644      -0.07997908
H        1.94421992       6.80676032       0.70293702       21      -0.04784195      -0.02490147       0.10583076
H        6.63454922       2.85599718       9.35611427       22       0.01850713      -0.00398173      -0.04261102
H        2.45958022       9.29088168       0.45365839       23      -0.02559716      -0.03840688      -0.00366072
H        5.08233486       0.51594344       1.27689397       24      -0.07526026      -0.01232853      -0.01782326
H        4.01203193      11.62889075       8.53337531       25       0.09270270       0.01198065      -0.00987178
H        6.68556248       0.80741376       0.56825057       26      -0.04376303      -0.01778877       0.01530517
H        2.40844042      11.33699827       9.24237713       27       0.10567255      -0.00580052      -0.01255737
C        1.17577751       9.33455695       3.32579261       28       0.02872899      -0.10891175       0.05059128
C        7.91941910       2.80726811       6.48446006       29      -0.03067315       0.20727709      -0.05113599
C        1.01501754       1.13950462       3.04503783       30       0.03230453      -0.24602050      -0.00182649
C        8.08063455      11.00543942       6.76628601       31       0.03273973       0.09790659      -0.03827739
C        7.52531476       1.97162580       3.24196585       32      -0.14051861      -0.04289315       0.01542702
C        1.57219853      10.17018729       6.56852597       33       0.08351363       0.18418558       0.00355206
C        6.36998345       1.34407226       3.71285659       34      -0.05651274      -0.03767933       0.07261061
C        2.72844785      10.79942422       6.09939468       35      -0.00442041      -0.01625208      -0.07048098
C        6.50653601       9.54722475       3.97225789       36      -0.14747000       0.02116233       0.12123247
C        2.59222958       2.59523805       5.83799241       37      -0.03176524       0.00897785      -0.04965562
C        7.61933588       8.72397872       3.79283145       38      -0.07617109      -0.00345009      -0.03243240
C        1.47785754       3.41892920       6.01929233       39       0.07780724      -0.03924505       0.03181739
C        2.90602641       2.59728482       2.16819591       40      -0.00488675       0.00896811      -0.01113164
C        6.19000268       9.54573408       7.64581508       41      -0.00262225       0.02666110      -0.08773476
C        1.62144681       2.96329332       0.03137870       42       0.07461095      -0.02606429      -0.06736276
C        7.47505979       9.18136935       9.77821300       43      -0.16753066       0.00930300       0.06332748
C        3.25391489       5.56253879       8.52413294       44       0.02675110      -0.00406197       0.03395910
C        5.84255073       6.58038762       1.28476951       45      -0.02448592       0.03183989       0.02778421
C        5.12703080       5.17772592       9.61563578       46      -0.00545302      -0.12460172      -0.19258435
C        3.96905719       6.96910157       0.19891138       47      -0.01411235       0.07062039       0.13844492
C        5.26321371       2.38732976       0.13298993       48       0.03932038       0.01565120      -0.05270618
C        3.83499977       9.75677717       9.67962208       49      -0.11889750      -0.00498825      -0.01728204
C        5.60437486       0.91540745       0.39647799       50      -0.06900562       0.06545183       0.00136378
C        3.49185015      11.22756123       9.41274342       51       0.00240777      -0.00161926       0.08275193
N        2.44258079       8.83971698       3.11422917       52       0.06777390      -0.13393092       0.07965890
N        6.65059388       3.30089136       6.69679346       53      -0.02849423       0.26276761      -0.10281501
N        3.23068350       9.81822594       2.70887478       54       0.02587956      -0.04131100      -0.13383962
N        5.86132746       2.32457493       7.10342241       55       0.07248608       0.06026077       0.08017518
N        2.32228120       1.37700677       2.66045123       56       0.61755741      -0.19267526       0.34647846
N        6.77188841      10.76943435       7.14606192       57      -0.68125880      -0.09163690      -0.18072170
N        2.80528564       2.71989359       0.71801709       58       0.08952552       0.42867213      -0.09172404
N        6.28589334       9.41937466       9.09268668       59       0.10717622      -0.35831252       0.18291277
N        4.62177703       5.35526030       8.38945757       60       0.00240836       0.00790133      -0.09012399
N        4.47501859       6.79050904       1.42419526       61       0.03143474      -0.01017088       0.05166194
Cl       1.22541297       5.47136623       3.00812919       62      -0.00138346       0.22558504      -0.00067066
Cl       7.87287138       6.66930720       6.80703906       63       0.00250178      -0.21762329       0.00191171
Cl       4.02876915       7.46874569       5.75674211       64      -0.09573622      -0.17860395      -0.13963415
Cl       5.07362582       4.67032357       4.06103385       65       0.08245662       0.18629767       0.11631303
66
Lattice="7.60945637 0.0 0.0 0.18696003276856984 9.582321891282223 0.0 1.3045967710954982 2.558183642065109 9.817562664786545" Properties=species:S:1:pos:R:3:spacegroup_kinds:I:1:forces:R:3 spacegroup="P 1" unit_cell=conventional occupancy="_JSON {\"0\": {\"Cd\": 1}, \"1\": {\"Cd\": 1}, \"2\": {\"H\": 1}, \"3\": {\"H\": 1}, \"4\": {\"H\": 1}, \"5\": {\"H\": 1}, \"6\": {\"H\": 1}, \"7\": {\"H\": 1}, \"8\": {\"H\": 1}, \"9\": {\"H\": 1}, \"10\": {\"H\": 1}, \"11\": {\"H\": 1}, \"12\": {\"H\": 1}, \"13\": {\"H\": 1}, \"14\": {\"H\": 1}, \"15\": {\"H\": 1}, \"16\": {\"H\": 1}, \"17\": {\"H\": 1}, \"18\": {\"H\": 1}, \"19\": {\"H\": 1}, \"20\": {\"H\": 1}, \"21\": {\"H\": 1}, \"22\": {\"H\": 1}, \"23\": {\"H\": 1}, \"24\": {\"H\": 1}, \"25\": {\"H\": 1}, \"26\": {\"H\": 1}, \"27\": {\"H\": 1}, \"28\": {\"C\": 1}, \"29\": {\"C\": 1}, \"30\": {\"C\": 1}, \"31\": {\"C\": 1}, \"32\": {\"C\": 1}, \"33\": {\"C\": 1}, \"34\": {\"C\": 1}, \"35\": {\"C\": 1}, \"36\": {\"C\": 1}, \"37\": {\"C\": 1}, \"38\": {\"C\": 1}, \"39\": {\"C\": 1}, \"40\": {\"C\": 1}, \"41\": {\"C\": 1}, \"42\": {\"C\": 1}, \"43\": {\"C\": 1}, \"44\": {\"C\": 1}, \"45\": {\"C\": 1}, \"46\": {\"C\": 1}, \"47\": {\"C\": 1}, \"48\": {\"C\": 1}, \"49\": {\"C\": 1}, \"50\": {\"C\": 1}, \"51\": {\"C\": 1}, \"52\": {\"N\": 1}, \"53\": {\"N\": 1}, \"54\": {\"N\": 1}, \"55\": {\"N\": 1}, \"56\": {\"N\": 1}, \"57\": {\"N\": 1}, \"58\": {\"N\": 1}, \"59\": {\"N\": 1}, \"60\": {\"N\": 1}, \"61\": {\"N\": 1}, \"62\": {\"Cl\": 1}, \"63\": {\"Cl\": 1}, \"64\": {\"Cl\": 1}, \"65\": {\"Cl\": 1}}" energy=-412.7063903808594 free_energy=-412.7063903808594 stress="-0.005826163571327925 -0.004357768688350916 0.0029637778643518686 -0.004357768688350916 -0.0018107639625668526 9.84670168691082e-06 0.0029637778643518686 9.84670168691082e-06 -0.0018816820811480284" pbc="T T T"