84
Lattice="7.47353725 0.0 0.0 -0.2952515097068136 10.26961319434529 0.0 -3.013952158144711e-05 9.967066939842317e-06 12.151624679958534" Properties=species:S:1:pos:R:3:spacegroup_kinds:I:1:forces:R:3 spacegroup="P 1" unit_cell=conventional occupancy="_JSON {\"0\": {\"Cu\": 1}, \"1\": {\"Cu\": 1}, \"2\": {\"Cu\": 1}, \"3\": {\"Cu\": 1}, \"4\": {\"H\": 1}, \"5\": {\"H\": 1}, \"6\": {\"H\": 1}, \"7\": {\"H\": 1}, \"8\": {\"H\": 1}, \"9\": {\"H\": 1}, \"10\": {\"H\": 1}, \"11\": {\"H\": 1}, \"12\": {\"H\": 1}, \"13\": {\"H\": 1}, \"14\": {\"H\": 1}, \"15\": {\"H\": 1}, \"16\": {\"H\": 1}, \"17\": {\"H\": 1}, \"18\": {\"H\": 1}, \"19\": {\"H\": 1}, \"20\": {\"H\": 1}, \"21\": {\"H\": 1}, \"22\": {\"H\": 1}, \"23\": {\"H\": 1}, \"24\": {\"H\": 1}, \"25\": {\"H\": 1}, \"26\": {\"H\": 1}, \"27\": {\"H\": 1}, \"28\": {\"C\": 1}, \"29\": {\"C\": 1}, \"30\": {\"C\": 1}, \"31\": {\"C\": 1}, \"32\": {\"C\": 1}, \"33\": {\"C\": 1}, \"34\": {\"C\": 1}, \"35\": {\"C\": 1}, \"36\": {\"N\": 1}, \"37\": {\"N\": 1}, \"38\": {\"N\": 1}, \"39\": {\"N\": 1}, \"40\": {\"N\": 1}, \"41\": {\"N\": 1}, \"42\": {\"N\": 1}, \"43\": {\"N\": 1}, \"44\": {\"N\": 1}, \"45\": {\"N\": 1}, \"46\": {\"N\": 1}, \"47\": {\"N\": 1}, \"48\": {\"N\": 1}, \"49\": {\"N\": 1}, \"50\": {\"N\": 1}, \"51\": {\"N\": 1}, \"52\": {\"N\": 1}, \"53\": {\"N\": 1}, \"54\": {\"N\": 1}, \"55\": {\"N\": 1}, \"56\": {\"N\": 1}, \"57\": {\"N\": 1}, \"58\": {\"N\": 1}, \"59\": {\"N\": 1}, \"60\": {\"N\": 1}, \"61\": {\"N\": 1}, \"62\": {\"N\": 1}, \"63\": {\"N\": 1}, \"64\": {\"N\": 1}, \"65\": {\"N\": 1}, \"66\": {\"N\": 1}, \"67\": {\"N\": 1}, \"68\": {\"N\": 1}, \"69\": {\"N\": 1}, \"70\": {\"N\": 1}, \"71\": {\"N\": 1}, \"72\": {\"N\": 1}, \"73\": {\"N\": 1}, \"74\": {\"N\": 1}, \"75\": {\"N\": 1}, \"76\": {\"Cl\": 1}, \"77\": {\"Cl\": 1}, \"78\": {\"Cl\": 1}, \"79\": {\"Cl\": 1}, \"80\": {\"Cl\": 1}, \"81\": {\"Cl\": 1}, \"82\": {\"Cl\": 1}, \"83\": {\"Cl\": 1}}" energy=-515.26171875 free_energy=-515.26171875 stress="-0.012887876480817795 -0.006786997430026531 0.002315727761015296 -0.006786997430026531 -0.011110086925327778 -0.004105112981051207 0.002315727761015296 -0.004105112981051207 -0.00898499321192503" pbc="T T T"
Cu       4.32702947       8.92256541      11.19536077        0      -0.07260811       0.02929863      -0.16629872
Cu       6.38196261       6.52565417       5.12082923        1       0.18115079      -0.01316376      -0.21039894
Cu       2.79315269       1.39889440       1.01283997        2       0.17210162       0.03885157       0.08187191
Cu       0.73769985       3.78353841       7.08904176        3      -0.05360686      -0.04801363       0.07964212
H        3.70555367       5.19596554       7.27847529        4      -0.22976381       0.11228087       0.25547868
H        7.02810934      10.26349313       1.15601796        5       0.26125053      -0.28817391       0.48976469
H        3.43036186       5.10339438       4.86986291        6      -1.20462441       0.80005860       0.90902627
H        0.10658872       0.06371238      11.00371420        7       0.03734601       0.01458895      -0.10618711
H        1.33350276       7.66598640      11.75973977        8       0.22159529      -0.31394708       0.05475709
H        1.90186316       7.77179464       5.70913595        9      -0.21963096       0.29749811      -0.01695019
H        5.78958763       2.64385567       0.42496880       10      -0.17295299       0.23392040       0.09633046
H        5.22726875       2.51330276       6.44533225       11      -0.91626865       0.54023373       0.98004019
H        0.79321539       5.56551381       2.46255101       12       0.23060530      -0.37875569       0.87389451
H        2.45056559       9.84276135       8.57335861       13      -0.25279781       0.32813415       0.27703324
H        6.33721901       4.71919703       9.66656502       14      -0.23835358       0.16359662       1.01936591
H        4.67023058       0.43298356       3.62171972       15       0.29575825      -0.08687606      -0.05869544
H        0.75660565       4.68681398       1.02787885       16       0.09040703       0.01001509       0.35485804
H        2.78129536       0.45140833       7.13134672       17      -0.04227367       0.03603104       0.34171137
H        6.37231579       5.59703669      11.10627579       18      -0.10290828       0.95496941       0.15460235
H        4.34115669       9.80538066       5.00724461       19       0.25488192      -0.41169831       0.13555980
H        5.03026311       6.89657903       9.01117465       20       0.90080106      -0.72699207       0.02313311
H        5.67835675       8.52537277       2.89175537       21      -0.89667630       0.72187388      -0.02156740
H        2.09313687       3.39816734       3.13103227       22      -0.33652937       0.18874566       0.26801953
H        1.44213878       1.72048079       9.26393934       23      -0.48980209       0.73483092       0.25039253
H        4.39642526       8.01766764       8.02446682       24       0.24335812       0.17772385      -0.25168344
H        6.31387849       7.36206227       1.93278879       25       0.13643670       0.64390308       0.86215240
H        2.72378018       2.24266252       4.13382729       26      -0.46630099      -0.43147862       0.95598817
H        0.80979293       2.88345375      10.22900523       27       0.49911150       0.80781353       1.48357618
C        2.92849117       5.64559733       7.89187919       28       0.16913781      -0.53358370      -0.67870927
C        0.30836969       9.80909123       1.80465576       29      -0.02713162       0.09207834      -0.23059180
C        4.19160759       4.67545623       4.31676685       30       1.41277385      -1.35923159      -1.45591474
C        6.81661207       0.50949004      10.38749409       31      -0.24948421      -0.20560597       0.30963457
C        2.13659610       7.22254436       0.19696180       32       0.04356974       0.33111387      -0.95708787
C        1.09867575       8.24051917       6.27247503       33       0.48586017      -0.54034597      -0.58106208
C        4.98283701       3.09859742      12.01300706       34       0.06074160       0.17592493      -0.04017051
C        6.02985333       2.08441406       5.93565383       35       0.87708056      -0.82503331      -0.84106445
N        4.23098591       7.47996953       8.87710177       36      -1.11707389       0.73615855       0.18552282
N        6.48362828       7.93901123       2.80827845       37       1.06536591      -1.13621223      -0.90769899
N        2.89399735       2.80382344       3.32290049       38       0.97418594       0.27416706      -1.23513103
N        0.63578876       2.38530491       9.39166741       39      -0.02504729      -1.83501089      -1.68292069
N        3.10355564       6.71117205       8.66921880       40       0.68241668       0.70268452       0.67598695
N        0.13787907       8.73242487       2.59823676       41      -0.92123067      -0.97537750       0.43290839
N        4.02672147       3.57446595       3.53087402       42      -0.75196463      -0.14905633      -0.12408561
N        6.98742598       1.58033878       9.60643878       43       0.64094180       1.08567524      -0.72533667
N        1.95828408       6.91387340       9.35222629       44       0.68798947       2.03166246       0.87371886
N        1.27963814       8.49263630       3.28631692       45      -0.00713876       0.29496315      -0.52782488
N        5.16051529       3.35796003       2.84693875       46       0.26563114      -0.43735155       0.03554371
N        5.84635687       1.79529253       8.91454945       47       0.22421432       0.82935560      -0.03174622
N        1.10412147       6.07405252       8.98839934       48      -0.87758172      -1.44956088      -0.51317543
N        2.13258858       9.38712097       2.91182334       49       0.21462335       0.23314235       0.11267958
N        6.01993251       4.25069496       3.21601954       50       0.15481119      -0.07744552      -0.47104099
N        4.98740991       0.93601474       9.29287178       51      -0.43258157      -0.83789986       0.12963268
N        3.43360638       7.51858674       0.10019105       52      -0.03202222      -0.34085840       0.92038870
N       -0.19502767       7.94398990       6.22619135       53       0.18107557      -1.20190644      -1.11343098
N        3.68924518       2.79945067      12.04760998       54      -0.11588710      -0.57519639       0.30231571
N        7.32099663       2.37987472       5.98249494       55       0.38666916       0.27649313       0.00208902
N        4.07303019       6.70138203       1.03022407       56      -0.09636157      -0.11848386      -0.21672612
N        6.64211028       8.72652681       7.06647701       57      -0.56490648       1.54205906       1.39025378
N        3.05155983       3.59520894      11.15961646       58       0.01638347       0.78092271      -0.33634484
N        0.49254737       1.55464205       5.08897694       59      -0.33165413      -0.19325045       0.14867589
N        3.20687509       5.91633113       1.60836627       60       0.24864222       0.59123397      -0.53862798
N        0.02737266       9.54498734       7.67033014       61      -0.56521678      -0.68465543      -0.33712190
N        3.91278526       4.41238669      10.59256169       62      -0.21207413      -0.74282587       0.31222108
N        7.09349795       0.76453780       4.52627548       63       0.18211015       0.41820022       0.09405243
N        1.98514726       6.22451215       1.06328608       64      -0.38449675      -0.67094302       1.31395233
N        1.24911840       9.21477233       7.16133897       65       0.24734151       0.68353283       0.99664491
N        5.13643249       4.09130838      11.11879763       66       0.12374145       0.38744542      -0.65020031
N        5.86971950       1.09544086       5.04261033       67      -0.27758098      -0.89285958      -0.92029411
N        0.79499348       5.63433672       1.45216344       68      -0.31133011       0.66064703      -1.50637054
N        2.44104445       9.77117249       7.54629652       69       0.64079833      -0.34641176      -0.79208636
N        6.32644190       4.65726712      10.73881141       70       0.58844894      -1.24448299      -1.09897637
N        4.68022437       0.49674166       4.65650593       71      -0.43908018       1.07560706       0.25754178
N        1.68210488       5.23786280       8.07586328       72      -0.51809335      -0.81907934      -0.59860092
N        1.55627895      10.22354685       2.00229748       73       0.17729163       0.13517450      -0.17166875
N        5.44016256       5.07985334       4.09035547       74      -0.01674910       0.98437726       1.08035958
N        5.56514790       0.09816369      10.20399743       75      -0.23396152      -0.33281022       0.31309670
Cl       6.37016545       7.87280841      11.47290808       76      -0.08600521       0.32856429      -0.19256741
Cl       4.34162523       7.53738099       5.36161832       77       0.01591224      -0.27435178      -0.11271175
Cl       0.75310794       2.40074932       0.66521592       78       0.04634060      -0.27893588       0.21426933
Cl       2.78052434       2.74220498       6.78012522       79      -0.05480918       0.29969975       0.20641115
Cl       2.28880719       9.98857391      10.79447464       80       0.20752101      -0.09356534       0.08213811
Cl       0.94589654       5.45508205       4.75644233       81      -0.17543642       0.10301507      -0.00197901
Cl       4.83034994       0.32111394       1.35864041       82      -0.20029289       0.08303292      -0.00978436
Cl       6.18430282       4.86949005       7.41037027       83       0.17386636      -0.09986880       0.09560113
84
Lattice="7.47353725 0.0 0.0 -0.2952515097068136 10.26961319434529 0.0 -3.013952158144711e-05 9.967066939842317e-06 12.151624679958534" Properties=species:S:1:pos:R:3:spacegroup_kinds:I:1:forces:R:3 spacegroup="P 1" unit_cell=conventional occupancy="_JSON {\"0\": {\"Cu\": 1}, \"1\": {\"Cu\": 1}, \"2\": {\"Cu\": 1}, \"3\": {\"Cu\": 1}, \"4\": {\"H\": 1}, \"5\": {\"H\": 1}, \"6\": {\"H\": 1}, \"7\": {\"H\": 1}, \"8\": {\"H\": 1}, \"9\": {\"H\": 1}, \"10\": {\"H\": 1}, \"11\": {\"H\": 1}, \"12\": {\"H\": 1}, \"13\": {\"H\": 1}, \"14\": {\"H\": 1}, \"15\": {\"H\": 1}, \"16\": {\"H\": 1}, \"17\": {\"H\": 1}, \"18\": {\"H\": 1}, \"19\": {\"H\": 1}, \"20\": {\"H\": 1}, \"21\": {\"H\": 1}, \"22\": {\"H\": 1}, \"23\": {\"H\": 1}, \"24\": {\"H\": 1}, \"25\": {\"H\": 1}, \"26\": {\"H\": 1}, \"27\": {\"H\": 1}, \"28\": {\"C\": 1}, \"29\": {\"C\": 1}, \"30\": {\"C\": 1}, \"31\": {\"C\": 1}, \"32\": {\"C\": 1}, \"33\": {\"C\": 1}, \"34\": {\"C\": 1}, \"35\": {\"C\": 1}, \"36\": {\"N\": 1}, \"37\": {\"N\": 1}, \"38\": {\"N\": 1}, \"39\": {\"N\": 1}, \"40\": {\"N\": 1}, \"41\": {\"N\": 1}, \"42\": {\"N\": 1}, \"43\": {\"N\": 1}, \"44\": {\"N\": 1}, \"45\": {\"N\": 1}, \"46\": {\"N\": 1}, \"47\": {\"N\": 1}, \"48\": {\"N\": 1}, \"49\": {\"N\": 1}, \"50\": {\"N\": 1}, \"51\": {\"N\": 1}, \"52\": {\"N\": 1}, \"53\": {\"N\": 1}, \"54\": {\"N\": 1}, \"55\": {\"N\": 1}, \"56\": {\"N\": 1}, \"57\": {\"N\": 1}, \"58\": {\"N\": 1}, \"59\": {\"N\": 1}, \"60\": {\"N\": 1}, \"61\": {\"N\": 1}, \"62\": {\"N\": 1}, \"63\": {\"N\": 1}, \"64\": {\"N\": 1}, \"65\": {\"N\": 1}, \"66\": {\"N\": 1}, \"67\": {\"N\": 1}, \"68\": {\"N\": 1}, \"69\": {\"N\": 1}, \"70\": {\"N\": 1}, \"71\": {\"N\": 1}, \"72\": {\"N\": 1}, \"73\": {\"N\": 1}, \"74\": {\"N\": 1}, \"75\": {\"N\": 1}, \"76\": {\"Cl\": 1}, \"77\": {\"Cl\": 1}, \"78\": {\"Cl\": 1}, \"79\": {\"Cl\": 1}, \"80\": {\"Cl\": 1}, \"81\": {\"Cl\": 1}, \"82\": {\"Cl\": 1}, \"83\": {\"Cl\": 1}}" energy=-514.4525756835938 free_energy=-514.4525756835938 stress="-0.019110292196273804 -0.00351123558357358 0.006664859130978584 -0.00351123558357358 -0.015504171140491962 -0.00985194556415081 0.006664859130978584 -0.00985194556415081 -0.012917270883917809" pbc="T T T"
Cu       4.29754429       8.95046340      11.22316336        0      -0.03410970       0.03828864      -0.20828389
Cu       6.35619313       6.54804231       5.14975138        1       0.27773428      -0.22119705      -0.34013736
Cu       2.76450334       1.41953788       1.04268548        2       0.29225898       0.13665634      -0.01625177
Cu       0.70822523       3.80802605       7.11398332        3      -0.00099947      -0.06820068      -0.01726228
H        3.67642093       5.22164757       7.30365182        4      -0.28101861       0.12264434       0.31239760
H        7.00962720      10.24118483       1.12623982        5       0.34144253      -0.24352041       0.65789062
H        3.40192605       5.12956901       4.84185405        6      -1.69804525       1.18730211       1.31142545
H        0.07946241       0.09020018      11.02839822        7       0.06211630      -0.02314967      -0.02733959
H        1.30479081       7.66693789      11.74889122        8       0.60807544      -0.52621937       0.45633894
H        1.87232389       7.79881508       5.73092804        9      -0.20812866       0.34488434       0.01765496
H        5.76128183       2.66787345       0.45450352       10      -0.15415257       0.28450012       0.08453980
H        5.19746436       2.50046039       6.41854284       11      -2.36576748       1.41325736       1.96219289
H        0.76385842       5.57704400       2.43958626       12       0.19169080      -0.57713318       2.19731736
H        2.42162426       9.83927686       8.57224403       13      -0.14268789       0.49831000       0.99820018
H        6.30872669       4.69240207       9.69372622       14      -0.14043862       0.36700073       0.90798032
H        4.64049174       0.40961171       3.62887020       15       0.33406392       0.24567133       0.24243996
H        0.72709859       4.71347255       1.00016943       16       0.04820976       0.30581498       0.58867049
H        2.75168898       0.42399541       7.11257308       17       0.16693196      -0.00556640       0.54853749
H        6.35661394       5.61803947      11.12315069       18      -0.10304025       0.85587853      -0.01220004
H        4.31604878       9.82975425       4.99193662       19       0.23432696      -0.84232521       0.55520922
H        5.00521095       6.87659736       9.02277585       20       1.09342456      -0.98857611       0.06994954
H        5.65024419       8.51921549       2.86396599       21      -1.74064863       1.52672458       0.15693827
H        2.06379642       3.41042729       3.10536049       22      -0.33282509       0.21359846       0.33987132
H        1.41483957       1.69647461       9.28163558       23      -0.50113809       0.72753346       0.27064037
H        4.37580599       7.98903702       8.01125772       24       0.09386370      -0.35509506       0.77563447
H        6.28463660       7.38735203       1.95351735       25       0.35352296       0.48789665       0.79123116
H        2.69438596       2.24963740       4.12316392       26      -0.54694313      -0.44719869       1.02959919
H        0.78959244       2.86146822      10.25059413       27       0.59014362       0.83777130       1.46750355
C        2.89944890       5.67306044       7.92053900       28       0.53433812      -2.46950150      -2.34964085
C        0.27867269       9.83787522       1.82635031       29       0.55860108       0.14240989      -0.50263339
C        4.17988288       4.70298414       4.34192738       30       1.05226707      -1.76576805      -1.67229438
C        6.78839264       0.53461779      10.41620930       31      -0.44806364      -0.49191371       0.45059600
C        2.11570571       7.23278270       0.22026887       32      -0.73606199       1.14138365      -2.02536631
C        1.07095460       8.26752270       6.29942300       33       0.91733903      -1.13294637      -1.30983639
C        4.95601373       3.12695862      12.04261687       34      -0.04534876       0.15395610      -0.08578072
C        6.00187891       2.11391555       5.96317198       35       2.17677879      -2.27284265      -2.35145187
N        4.20511957       7.45057788       8.90233350       36      -0.98001045       1.77799797      -0.94911993
N        6.45467217       7.96647913       2.82649552       37       1.81605422      -1.79920578      -1.00171781
N        2.86585051       2.83061415       3.33014169       38       1.14816427       0.36575553      -1.28342521
N        0.60951549       2.36124143       9.41627692       39       0.37009019      -1.36890960      -1.74989152
N        3.07484985       6.69635455       8.67564173       40       1.43870306       2.31867909       1.68173671
N        0.10822425       8.76102517       2.62770777       41      -0.90665668      -0.59313059       0.02576539
N        3.99723701       3.60285811       3.55877434       42      -0.53333914      -0.21134205      -0.30081373
N        6.96680267       1.58851350       9.63431239       43      -0.05027711       1.06841528      -1.05903101
N        1.93109914       6.92528134       9.32871903       44       0.70935833       3.06531096       1.90640187
N        1.24978371       8.51926671       3.30416741       45       0.10639212       0.49834496      -0.34530649
N        5.13137296       3.38739067       2.87658340       46       0.33986112      -0.66142976      -0.08873468
N        5.81682619       1.80135481       8.93276288       47       0.44641879       0.97601610      -0.23211600
N        1.07676615       6.10364137       8.97324896       48      -1.73274767      -1.85520887      -0.60378182
N        2.10284760       9.41579356       2.93945014       49       0.40843898       0.30355471      -0.25840575
N        5.99553576       4.27606947       3.24571785       50       0.23553805      -0.23987143      -0.71274197
N        4.95770460       0.93994292       9.29840839       51      -0.07678435      -0.71862429       0.44531766
N        3.40539720       7.53589493       0.09994482       52       0.10044378      -0.66330671       1.31261766
N       -0.22477304       7.96137233       6.22270145       53       1.20548248      -1.57237720      -1.36201191
N        3.66066415       2.80724675      12.07542387       54       0.27197400       0.15280956      -0.19944370
N        7.29377648       2.40776281       6.00599373       55       0.08939391       0.26393884       0.07856196
N        4.04336218       6.71655912       1.03636344       56       0.02278423      -0.32862088       0.02108288
N        6.61694939       8.70628574       7.05796787       57      -0.96426427       2.65246129       2.00956321
N        3.03320017       3.60480406      11.17691597       58      -0.23819801       1.01809633      -0.73963720
N        0.46703740       1.58276983       5.11762951       59      -0.44925821      -0.28571323       0.08352964
N        3.17714432       5.92577266       1.62933204       60       0.40251678       1.11697471      -0.98700017
N        0.01249120       9.55179286       7.64973658       61      -1.75453484      -0.11589117       0.81954885
N        3.88322499       4.43898092      10.58045683       62      -0.06844627      -1.76220417       1.48893476
N        7.06658101       0.79172341       4.55239676       63       0.32477784       0.17034680      -0.15483670
N        1.95680911       6.25172790       1.07857345       64      -0.35686296      -1.24173880       1.82727766
N        1.22015090       9.24130200       7.18996326       65      -0.12513053      -0.50881588      -0.02713716
N        5.11234052       4.11783958      11.14416554       66      -0.23688018       0.34849727      -0.75353932
N        5.84141108       1.10449137       5.05000401       67       0.24567616       0.08499134      -0.09700783
N        0.76707682       5.65557167       1.46029980       68      -0.29627898       0.47896859      -3.04641581
N        2.41327976       9.75822182       7.56557975       69       0.88732117       0.13531260      -1.47495151
N        6.29888897       4.67288378      10.76155525       70       0.68585539      -1.23763740      -0.96633846
N        4.65244088       0.51892101       4.67286415       71      -0.59910256       1.07630801      -0.49181622
N        1.65506690       5.26745936       8.07480684       72      -0.95603037      -1.31209242      -0.80946612
N        1.55503951      10.25015708       1.98525085       73      -1.01488268      -0.81640011       0.61914963
N        5.41361104       5.10804069       4.10535583       74       0.35585481       1.25036955       1.28017151
N        5.53618331       0.12718477      10.23255306       75      -0.44867766      -0.71804821       0.36592361
Cl       6.34032927       7.89333097      11.49937278       76      -0.09774241       0.33203775      -0.21102664
Cl       4.33286345       7.50801342       5.33712974       77      -0.15928228      -0.07463795      -0.00797274
Cl       0.72381592       2.37350181       0.66470655       78       0.00829906      -0.15794104       0.20910536
Cl       2.75079306       2.77186038       6.80657804       79      -0.03773449       0.22248819       0.21342325
Cl       2.25921809       9.99582230      10.78455043       80       0.20874864      -0.07609477       0.12369329
Cl       0.91632441       5.47079757       4.78199803       81      -0.13896726       0.12953411      -0.02580829
Cl       4.80233379       0.35079610       1.38076767       82      -0.18568692       0.03872086      -0.00824380
Cl       6.16341930       4.89462066       7.40036770       83       0.13191579      -0.12701705       0.16165254
84
Lattice="7.47353725 0.0 0.0 -0.2952515097068136 10.26961319434529 0.0 -3.013952158144711e-05 9.967066939842317e-06 12.151624679958534" Properties=species:S:1:pos:R:3:spacegroup_kinds:I:1:forces:R:3 spacegroup="P 1" unit_cell=conventional occupancy="_JSON {\"0\": {\"Cu\": 1}, \"1\": {\"Cu\": 1}, \"2\": {\"Cu\": 1}, \"3\": {\"Cu\": 1}, \"4\": {\"H\": 1}, \"5\": {\"H\": 1}, \"6\": {\"H\": 1}, \"7\": {\"H\": 1}, \"8\": {\"H\": 1}, \"9\": {\"H\": 1}, \"10\": {\"H\": 1}, \"11\": {\"H\": 1}, \"12\": {\"H\": 1}, \"13\": {\"H\": 1}, \"14\": {\"H\": 1}, \"15\": {\"H\": 1}, \"16\": {\"H\": 1}, \"17\": {\"H\": 1}, \"18\": {\"H\": 1}, \"19\": {\"H\": 1}, \"20\": {\"H\": 1}, \"21\": {\"H\": 1}, \"22\": {\"H\": 1}, \"23\": {\"H\": 1}, \"24\": {\"H\": 1}, \"25\": {\"H\": 1}, \"26\": {\"H\": 1}, \"27\": {\"H\": 1}, \"28\": {\"C\": 1}, \"29\": {\"C\": 1}, \"30\": {\"C\": 1}, \"31\": {\"C\": 1}, \"32\": {\"C\": 1}, \"33\": {\"C\": 1}, \"34\": {\"C\": 1}, \"35\": {\"C\": 1}, \"36\": {\"N\": 1}, \"37\": {\"N\": 1}, \"38\": {\"N\": 1}, \"39\": {\"N\": 1}, \"40\": {\"N\": 1}, \"41\": {\"N\": 1}, \"42\": {\"N\": 1}, \"43\": {\"N\": 1}, \"44\": {\"N\": 1}, \"45\": {\"N\": 1}, \"46\": {\"N\": 1}, \"47\": {\"N\": 1}, \"48\": {\"N\": 1}, \"49\": {\"N\": 1}, \"50\": {\"N\": 1}, \"51\": {\"N\": 1}, \"52\": {\"N\": 1}, \"53\": {\"N\": 1}, \"54\": {\"N\": 1}, \"55\": {\"N\": 1}, \"56\": {\"N\": 1}, \"57\": {\"N\": 1}, \"58\": {\"N\": 1}, \"59\": {\"N\": 1}, \"60\": {\"N\": 1}, \"61\": {\"N\": 1}, \"62\": {\"N\": 1}, \"63\": {\"N\": 1}, \"64\": {\"N\": 1}, \"65\": {\"N\": 1}, \"66\": {\"N\": 1}, \"67\": {\"N\": 1}, \"68\": {\"N\": 1}, \"69\": {\"N\": 1}, \"70\": {\"N\": 1}, \"71\": {\"N\": 1}, \"72\": {\"N\": 1}, \"73\": {\"N\": 1}, \"74\": {\"N\": 1}, \"75\": {\"N\": 1}, \"76\": {\"Cl\": 1}, \"77\": {\"Cl\": 1}, \"78\": {\"Cl\": 1}, \"79\": {\"Cl\": 1}, \"80\": {\"Cl\": 1}, \"81\": {\"Cl\": 1}, \"82\": {\"Cl\": 1}, \"83\": {\"Cl\": 1}}" energy=-513.3909912109375 free_energy=-513.3909912109375 stress="-0.02455136366188526 -0.0018534696428105235 0.010003545321524143 -0.0018534696428105235 -0.01877017132937908 -0.01437635812908411 0.010003545321524143 -0.01437635812908411 -0.01523531787097454" pbc="T T T"
Cu       4.26836444       8.97704420      11.25133205        0       0.04069853       0.10973077      -0.24389310
Cu       6.32837549       6.57334760       5.17769451        1       0.31108379      -0.38345307      -0.44904017
Cu       2.73515225       1.43917710       1.07113975        2       0.43088669       0.22702862      -0.10704790
Cu       0.68063302       3.83632474       7.14134658        3       0.07807919      -0.18497440      -0.12271329
H        3.64694287       5.24936277       7.33346400        4      -0.25710604       0.09119823       0.28376439
H        6.98191682      10.26477229       1.10443124        5       0.70581543      -0.47216809       1.09217405
H        3.37258990       5.12429528       4.81213345        6      -2.97590470       1.94366074       2.13579297
H        0.05301031       0.11211301      11.05373003        7       0.07316726      -0.07310273       0.02738880
H        1.27937722       7.67222821      11.72491028        8       0.62334424      -0.50800091       0.50288403
H        1.84291806       7.82805108       5.75820034        9      -0.11964548       0.32778171      -0.03399194
H        5.73181385       2.68679836       0.47975099       10      -0.20422506       0.35600579       0.04018215
H        5.16842699       2.49899224       6.39265102       11      -3.07121110       1.85407162       2.39698839
H        0.73651140       5.58368387       2.42467581       12      -0.00233582      -0.64843446       2.47802711
H        2.39217808       9.82759210       8.55602073       13       0.00607228       0.75198382       2.25325942
H        6.27946797       4.70729570       9.70018890       14      -0.11303087       0.27328089       1.41337955
H        4.61227829       0.41486538       3.65147875       15       0.33694604       0.40537360       0.39297912
H        0.70018605       4.72123503       0.99054311       16      -0.05402537       0.71808475       0.74204177
H        2.73035040       0.41669713       7.08423673       17       0.29594523      -0.69036442       1.05700099
H        6.32688582       5.58920869      11.13262731       18       0.07711203       2.40987158       0.59069973
H        4.29027061       9.84021698       5.00605746       19       0.22499813      -0.37439185       0.48659408
H        4.98408656       6.86055015       9.01720059       20       1.10412514      -1.14808500       0.09261969
H        5.62337036       8.52086549       2.83799401       21      -2.10630465       1.80417228       0.13186300
H        2.03783874       3.38779543       3.07626656       22      -0.65148616       0.52438486       0.28238720
H        1.38507311       1.67950954       9.27000592       23      -0.45689401       0.69474334       0.38656580
H        4.34625338       7.96771746       7.99111333       24      -0.00722920      -0.72389853       1.59264874
H        6.25478470       7.37710181       1.94478966       25       0.59338510       0.93605447       1.34403217
H        2.66641203       2.25334300       4.13011647       26      -0.59748739      -0.49876803       1.20920634
H        0.75984145       2.85984804      10.23001663       27       0.79732072       1.21582556       2.08332634
C        2.86976384       5.69813995       7.95001084       28       0.94517946      -2.96645594      -2.96592140
C        0.25121469       9.86667234       1.83833354       29       0.44599056       0.12215406      -0.75173342
C        4.15130742       4.73168613       4.35097602       30       2.24344158      -2.35097957      -2.28392291
C        6.76069718       0.55037400      10.44156750       31      -0.58779395      -1.22226930       0.99536085
C        2.09213597       7.26002784       0.20894141       32      -0.94092631      -0.39451987      -0.65015024
C        1.04462444       8.29602634       6.32672213       33       1.00364161      -1.59634733      -1.84876037
C        4.92858652       3.15595967      12.06867831       34      -0.02459601       0.00643674       0.08852312
C        5.98954199       2.14173735       5.98082647       35       1.81953955      -2.93246078      -2.69671726
N        4.17557451       7.42272881       8.91545843       36      -0.30517942       3.04849625      -1.64187050