76
Lattice="7.23805044 0.0 0.0 -0.00011467352070012625 8.69755732924404 0.0 -0.000125141008401378 5.6324443465920735e-05 12.705198329258858" Properties=species:S:1:pos:R:3:spacegroup_kinds:I:1:forces:R:3 spacegroup="P 1" unit_cell=conventional occupancy="_JSON {\"0\": {\"Cu\": 1}, \"1\": {\"Cu\": 1}, \"2\": {\"Cu\": 1}, \"3\": {\"Cu\": 1}, \"4\": {\"H\": 1}, \"5\": {\"H\": 1}, \"6\": {\"H\": 1}, \"7\": {\"H\": 1}, \"8\": {\"H\": 1}, \"9\": {\"H\": 1}, \"10\": {\"H\": 1}, \"11\": {\"H\": 1}, \"12\": {\"H\": 1}, \"13\": {\"H\": 1}, \"14\": {\"H\": 1}, \"15\": {\"H\": 1}, \"16\": {\"H\": 1}, \"17\": {\"H\": 1}, \"18\": {\"H\": 1}, \"19\": {\"H\": 1}, \"20\": {\"H\": 1}, \"21\": {\"H\": 1}, \"22\": {\"H\": 1}, \"23\": {\"H\": 1}, \"24\": {\"H\": 1}, \"25\": {\"H\": 1}, \"26\": {\"H\": 1}, \"27\": {\"H\": 1}, \"28\": {\"H\": 1}, \"29\": {\"H\": 1}, \"30\": {\"H\": 1}, \"31\": {\"H\": 1}, \"32\": {\"H\": 1}, \"33\": {\"H\": 1}, \"34\": {\"H\": 1}, \"35\": {\"H\": 1}, \"36\": {\"H\": 1}, \"37\": {\"H\": 1}, \"38\": {\"H\": 1}, \"39\": {\"H\": 1}, \"40\": {\"H\": 1}, \"41\": {\"H\": 1}, \"42\": {\"H\": 1}, \"43\": {\"H\": 1}, \"44\": {\"C\": 1}, \"45\": {\"C\": 1}, \"46\": {\"C\": 1}, \"47\": {\"C\": 1}, \"48\": {\"C\": 1}, \"49\": {\"C\": 1}, \"50\": {\"C\": 1}, \"51\": {\"C\": 1}, \"52\": {\"C\": 1}, \"53\": {\"C\": 1}, \"54\": {\"C\": 1}, \"55\": {\"C\": 1}, \"56\": {\"C\": 1}, \"57\": {\"C\": 1}, \"58\": {\"C\": 1}, \"59\": {\"C\": 1}, \"60\": {\"C\": 1}, \"61\": {\"C\": 1}, \"62\": {\"C\": 1}, \"63\": {\"C\": 1}, \"64\": {\"I\": 1}, \"65\": {\"I\": 1}, \"66\": {\"I\": 1}, \"67\": {\"I\": 1}, \"68\": {\"N\": 1}, \"69\": {\"N\": 1}, \"70\": {\"N\": 1}, \"71\": {\"N\": 1}, \"72\": {\"N\": 1}, \"73\": {\"N\": 1}, \"74\": {\"N\": 1}, \"75\": {\"N\": 1}}" energy=-182.06419372558594 free_energy=-182.06419372558594 stress="-0.17079214751720428 0.056924667209386826 -0.02875695750117302 0.056924667209386826 -0.2429216504096985 0.035587847232818604 -0.02875695750117302 0.035587847232818604 -0.19104455411434174" pbc="T T T"
Cu       4.59290383       4.98936709       5.73397753        0       0.79603750       3.35391808       3.08067465
Cu       7.64191832       2.16540965      10.85228084        1       2.03004932       2.14607358       3.48122025
Cu       2.09408581       1.04979915       2.25656738        2     -10.36720467      -3.43270540       4.93694401
Cu       1.49110741       7.93766325       8.50042025        3      -3.59796858     -20.64293671     -36.65715790
H        4.14565494       3.54397495       6.42491087        4      -1.54403484      -1.11097133      -0.79447365
H        0.31076699       6.29489754      13.05752393        5      -0.13942540      -2.87610483       1.06540000
H        3.77499637       7.71992881       0.69061889        6       1.01755440      -0.79364544      -0.55080748
H        6.49113891       0.38387724       7.54983831        7       3.48455000      -0.79098940      -2.37266111
H        4.22007820       1.12428312       5.96194394        8      -1.06645501      -1.33206201      -3.68397546
H        7.33444327       6.71881482      11.00275745        9      47.16407394      10.07161999      50.85690308
H        3.72980655       6.90533195       0.27904368       10       1.07041919       1.18577504      -0.41783392
H        1.47174702       3.13067029       6.49986074       11      -0.10456699      -0.95775056      -0.07848248
H        2.70867073       1.81609384       4.14629918       12       2.07026196      -0.21841347      -0.87477463
H        1.99035037       6.48786312      10.45183280       13       1.35626829      -1.21744370       0.99646533
H        5.46884132       7.10814295       2.39415795       14      -1.03023076       1.66490614      -1.49406838
H        6.73801356       1.75301851       9.22430613       15     -70.50975800      50.14600372     -38.10013199
H        2.60818370       4.43354446       4.23694461       16      -0.68769896      -1.02230966      -1.05822206
H        1.10140101       5.81211876       9.29806764       17       1.04961729      -2.40247345       0.91770488
H        5.12795321       7.61464736       1.82470632       18       1.98348188      -2.09450388       1.41955984
H        5.71540044      -0.16301399       9.33520467       19      -3.06880236       1.78774095      -1.13835239
H        3.94427283       5.26845767       2.78316999       20      -0.64953721       1.45124972      -0.26206836
H        5.92520470       3.64398778       8.52998736       21      -0.07667305       0.09123808       0.38672560
H        3.79473360       0.70946910       4.77522548       22       0.78012955       2.19752693       2.56583953
H        1.73266293       7.86033323       9.49089532       23       2.88022423      -7.22979975      22.95588303
H        4.77570687       2.20511784       2.37011751       24       0.12488702       1.63094068       1.41413569
H        5.90622127       5.26819271       7.14671285       25      -0.83467245       0.12314279      -0.89728570
H        2.08471452       7.35877219       5.17675124       26       0.55019021       0.77097344      -2.03760982
H        2.17523650       0.45958572      10.94024272       27       0.82026362       1.32879412      -0.87201166
H        6.19446201       3.46308631       4.10868274       28     -42.17185211     119.41323853       4.13823223
H        4.57190847       5.23509394      10.83950205       29      10.32322788      33.62432861      -0.00586987
H        1.02794947       6.82053733       1.39660889       30       0.05924357       2.96366882      -0.67968231
H        1.60696109       1.37452444       8.36329307       31       1.48006332       5.57569695      -5.07509756
H        5.58194001       4.96321909       3.35400580       32       0.84328419       0.98166162      -1.25575423
H        3.90294736       2.46109621       8.95035401       33       0.22841433       3.33465815       0.15774378
H        0.23176254       0.82986541       3.63787273       34      -1.45582259      -0.63476980      -1.88136673
H        3.26869036       8.37494493       9.37327370       35       9.08164978       1.64641619       0.00996780
H        0.71501352       3.91196047       1.79048736       36     -25.85585213     -16.06806564      43.39167786
H        3.84028540       3.58045625       9.08098818       37       1.14603519      -3.94632387      -0.08656108
H        6.17260221       9.06524347       4.34902392       38      -0.24433650       1.16210771      -1.28433692
H        3.72429391       0.30474239      10.80873074       39      -0.13986623       1.01978874       1.07107317
H        0.55488433       3.73767280       3.81480680       40       2.41153216       0.69462174      -0.39656192
H        3.11412759       3.68262779      10.83544086       41       3.26487398       1.86398029       0.19003074
H        6.14802831      -0.31194689       1.59192425       42       0.33689058       0.70571572       0.92046654
H        4.30158387       7.80771179       7.58326851       43      -0.10581319       2.42975330       2.24176216
C        3.27456180       3.71899322       5.55539386       44       1.86721015       0.27163133       0.92350179
C        6.88300863       6.66541575      10.55701029       45     -46.81882477      -9.05583954     -48.64049149
C        2.70435742       6.59131474       1.91659458       46      22.25012207     -26.06945038       9.13644123
C        1.35823702       1.58472988       6.94344417       47      -2.01256251       0.09603167       0.50635970
C        2.11011250       3.44326022       2.99427531       48       3.98922157      -1.98052347       1.02328658
C        0.11800938       5.33205883      10.40524940       49      -2.96317911      -7.12361574       1.61640751
C        3.77904591       7.82896196       3.29035977       50       2.88363385      -0.47395805      -4.82607651
C        7.34860933       1.34277914       8.63869518       51      13.10432243      -6.86855745     -35.91803741
C        3.95875525       2.61058334       3.24322491       52      -3.67012644      -0.19324797      -0.89830720
C        5.25137870       6.25249089       8.95084855       53      -2.92500591      -0.61488390       1.40429854
C        2.29712743       7.91377402       3.95577300       54     -49.69749832      44.72229004     -29.75641251
C        1.57393809       1.76288156       9.32474818       55       1.72843444       0.18269777       2.29645014
C        6.32610251       2.99952357       4.10108492       56      35.87236023    -122.37619019      -2.37143326
C        5.19423427       5.99219672      10.27719413       57      -0.08772044      -1.24792194      -4.61780930
C        2.03418977       7.32739822       1.66891209       58     -20.53607178      20.43105888      -5.06533003
C        1.73813780      -0.08684877       8.92719850       59       4.38865805      32.36366653      12.07675552
C        6.71348887       5.16944561       3.95174628       60      -1.72990680       0.04378176       0.25272894
C        4.35676427       4.51594511      10.85961306       61     -12.73995972     -35.05393600       0.72720975
C       -0.51465255       0.42026210       2.77699942       62       1.91189957       0.35317084       1.74747050
C        4.18432782       9.04626397       8.58166205       63       2.45981789      -4.64770746       0.83810747
I        1.17190424       6.17559413       7.67322539       64       0.87248826     -11.11067390      -9.23680019
I        1.10755251       4.17763766       1.06966994       65      24.64469147      17.16272545     -45.69238663
I        5.58913401       1.35926428      11.75991808       66      -3.94686627      -2.25673556       0.79778302
I        6.00692253       7.88870030       5.40765999       67      -0.07884197      -1.26352000       1.52004778
N        5.12655571       3.98465323       4.58505501       68       3.69083071      -1.68964672      -1.80646455
N        6.62965197       3.98891791      10.90938507       69       2.80601358       4.63406515      -2.39696693
N        3.29564973       8.26653808       1.75460775       70      -1.30471921       2.78967667       1.98468542
N        0.48649103       0.07538118       6.87260583       71      -1.65163529       1.79241991       0.88232100
N        3.08276773       1.60936863       1.79613914       72       8.56397629       5.89106464      -3.46549463
N        7.71149825       6.96915551       8.97935814       73     -10.59725857       0.93715054       6.56032133
N        2.82660200       7.42578206       4.30108441       74      45.27952576     -45.27545929      34.03327179
N       -0.10367197       1.45563158       9.53937804       75      51.74430847     -40.96382904      72.12131500
76
Lattice="7.23805044 0.0 0.0 -0.00011467352070012625 8.69755732924404 0.0 -0.000125141008401378 5.6324443465920735e-05 12.705198329258858" Properties=species:S:1:pos:R:3:spacegroup_kinds:I:1:forces:R:3 spacegroup="P 1" unit_cell=conventional occupancy="_JSON {\"0\": {\"Cu\": 1}, \"1\": {\"Cu\": 1}, \"2\": {\"Cu\": 1}, \"3\": {\"Cu\": 1}, \"4\": {\"H\": 1}, \"5\": {\"H\": 1}, \"6\": {\"H\": 1}, \"7\": {\"H\": 1}, \"8\": {\"H\": 1}, \"9\": {\"H\": 1}, \"10\": {\"H\": 1}, \"11\": {\"H\": 1}, \"12\": {\"H\": 1}, \"13\": {\"H\": 1}, \"14\": {\"H\": 1}, \"15\": {\"H\": 1}, \"16\": {\"H\": 1}, \"17\": {\"H\": 1}, \"18\": {\"H\": 1}, \"19\": {\"H\": 1}, \"20\": {\"H\": 1}, \"21\": {\"H\": 1}, \"22\": {\"H\": 1}, \"23\": {\"H\": 1}, \"24\": {\"H\": 1}, \"25\": {\"H\": 1}, \"26\": {\"H\": 1}, \"27\": {\"H\": 1}, \"28\": {\"H\": 1}, \"29\": {\"H\": 1}, \"30\": {\"H\": 1}, \"31\": {\"H\": 1}, \"32\": {\"H\": 1}, \"33\": {\"H\": 1}, \"34\": {\"H\": 1}, \"35\": {\"H\": 1}, \"36\": {\"H\": 1}, \"37\": {\"H\": 1}, \"38\": {\"H\": 1}, \"39\": {\"H\": 1}, \"40\": {\"H\": 1}, \"41\": {\"H\": 1}, \"42\": {\"H\": 1}, \"43\": {\"H\": 1}, \"44\": {\"C\": 1}, \"45\": {\"C\": 1}, \"46\": {\"C\": 1}, \"47\": {\"C\": 1}, \"48\": {\"C\": 1}, \"49\": {\"C\": 1}, \"50\": {\"C\": 1}, \"51\": {\"C\": 1}, \"52\": {\"C\": 1}, \"53\": {\"C\": 1}, \"54\": {\"C\": 1}, \"55\": {\"C\": 1}, \"56\": {\"C\": 1}, \"57\": {\"C\": 1}, \"58\": {\"C\": 1}, \"59\": {\"C\": 1}, \"60\": {\"C\": 1}, \"61\": {\"C\": 1}, \"62\": {\"C\": 1}, \"63\": {\"C\": 1}, \"64\": {\"I\": 1}, \"65\": {\"I\": 1}, \"66\": {\"I\": 1}, \"67\": {\"I\": 1}, \"68\": {\"N\": 1}, \"69\": {\"N\": 1}, \"70\": {\"N\": 1}, \"71\": {\"N\": 1}, \"72\": {\"N\": 1}, \"73\": {\"N\": 1}, \"74\": {\"N\": 1}, \"75\": {\"N\": 1}}" energy=117.03351593017578 free_energy=117.03351593017578 stress="-0.0935707837343216 -0.10479825735092163 -0.12916965782642365 -0.10479825735092163 -0.8507874011993408 -0.39660266041755676 -0.12916965782642365 -0.39660266041755676 -0.33352550864219666" pbc="T T T"
Cu       4.87072436       5.62409344       6.19813543        0      -4.60649729       5.67334747       9.27387142
Cu       8.17351683       2.40258306      10.54242529        1      -0.20004946       3.31283903      14.76673889
Cu       2.71851420       0.29677171       2.99339904        2       2.76270556       3.87911749      -2.45223808
Cu       2.46612936       8.63831460       9.37172208        3      22.12528419       3.23711443      23.19531631
H        4.57427266       3.39091171       5.67863878        4      -1.34470153      -1.34917879      -2.00807714
H       -0.55989266       6.44798278      12.09237506        5      -1.84075534      -0.31631914       0.67545211
H        2.90584019       8.37769879       0.67228211        6     -28.69205284      35.76025772     -37.38924408
H        6.68059479       0.08216044       7.57056971        7       2.67081118       4.08015060      -0.31408069
H        4.72598466       1.70105057       6.90945204        8       0.07613406       1.04972792       0.68812650
H        7.22022390       7.56762567      10.77592733        9      -0.31416103       1.25277364       1.33953488
H        3.17237509       7.52969537      -0.12363180       10       0.12549683      -2.05297852       1.56929076
H        0.57937209       2.67817030       5.93153915       11      -0.80580240      -2.26356649       0.74857593
H        3.09109959       2.74258790       5.00491380       12       1.08169484      -1.14942455      -2.87590599
H        1.07337374       7.39872199      11.22655084       13      -0.19834185       0.41058418      -0.46151614
H        4.91140897       7.39504275       1.88232017       14       4.36466122      -0.23554729      -1.19889569
H        7.38984352       1.48233114       9.17283645       15      -3.88617611      -1.51151979      -2.92743874
H        3.06303196       4.58136802       4.25087180       16      -1.36138415      -2.00284934       4.08487988
H        0.15154473       5.03595566       8.94483475       17       0.57729095       0.28398031      -0.10275425
H        5.89019005       7.52899480       1.69137103       18      -4.21760654       0.51762605       0.78976959
H        6.13431375       0.23584870      10.17584819       19       0.95480186       3.24773431      -0.71898222
H        4.73718644       5.83193787       3.50770534       20      -3.58133054      -0.12638466      -2.77815151
H        5.63979212       4.57848943       8.60684389       21       0.26705378       0.93572032       0.88768601
H        3.45535354       0.84988994       4.91278194       22       1.59462178       3.81656528      -1.78293800
H        1.99416064       8.02270928       9.04085814       23     -17.05641937     -29.82017708     -12.70873642
H        4.78736681       3.16110076       3.20501748       24      21.21642494      -4.68923998      -3.99192381
H        5.90764682       5.24952729       7.15770968       25       1.04250407       0.35045290       1.24335086
H        1.46417176       7.15599306       4.26626323       26       1.34654903      -1.96796596       2.01028442
H        2.16984829       0.73518144      10.34850080       27      -2.58365846       3.34815454       3.30795956
H        6.12130300       2.49200398       4.92515164       28      14.11187553       0.57816559       4.30569744
H        5.09446626       4.89202555      10.32470340       29      -2.22252393      -0.38490176       0.97555763
H        1.95978554       6.36554590       0.89105291       30       1.30444753       1.81491804       2.74179697
H        0.64832320       2.31025656       9.05055239       31     -81.13194275      12.55381775     -87.47557068
H        5.45236891       5.62920932       3.82764127       32       1.75313759      -4.45700455      -0.20297791
H        4.80971276       3.32967828       8.21322432       33       1.46411633       0.75339603      -0.32203305
H       -0.25421338       1.62373311       4.28407280       34      -2.46893358      -0.00929511      -1.82388234
H        3.29870230       9.18783772      10.11055097       35      -7.91465759      47.60895157      13.65955353
H        0.09937121       4.86675702       2.37452502       36      -1.70955956       1.62037098       3.48727083
H        4.34751646       2.87145053       8.09021212       37      -1.64474082      -2.22734904      -1.48561645
H        5.42402700       8.82368144       3.67172436       38       3.38766336       0.70369995       1.56482792
H        3.40461295       0.11396533      10.03953184       39      21.50949478     -40.78760529      -5.00514889
H        1.53394730       3.77114525       3.98298804       40       1.83180666      -4.27375984      -3.64531779
H        2.30823763       4.27299045      11.01346106       41      -1.81299078       0.77582091       1.02116621
H        5.16880267       0.35244839       0.95139498       42       4.71623182      -1.50278628      -1.80815315
H        4.07916037       8.32056327       8.56502674       43      -3.13451767       2.34575891      -0.02302362
C        3.18513500       4.22397825       5.95205461       44       2.23665810      -1.99001026      -6.04155731
C        5.89023843       5.69618235       9.68268394       45      -0.42859006       1.04300523      -1.50371456
C        1.79387561       5.83094156       2.56541921       46      -2.66259718       3.72789264      -1.24180579
C        0.62406348       0.99775096       7.65516798       47      -3.57220745       1.17828584      -5.76490974
C        1.92000648       2.77631702       2.22223047       48      -2.26404905       8.24156284       3.08886218
C        1.08849012       4.37210427      11.23322104       49       2.08460784      -4.43088818       1.45348477
C        3.63138439       6.90286939       3.20897325       50       4.04609156      -6.07427597      -9.21426105
C        8.16988003       2.24109421       9.39075500       51      76.24400330      -8.43945312      82.56408691
C        3.85373218       2.12317491       2.85566901       52     590.11022949    3532.34863281    1712.77880859
C        5.87483703       6.05257123       8.11704538       53      -1.11497736      -1.29936719      -0.11614954
C        3.23355920       7.66245464       4.02992838       54      -4.95208931      -0.02293903       7.49853611
C        2.19340332       0.91903739       8.38452562       55      16.38826180      19.81444740      -4.51488876
C        5.34311689       2.53065597       4.65844569       56     -17.49279976      -4.27724218     -10.94524384
C        4.82856725       5.83806017      11.00592839       57       3.55944133      -2.86380267      -1.00459349
C        1.05266488       7.43708338       2.10886276       58       5.65245199      -3.07445145       2.27187634
C        1.50636306      -0.05792641       8.37107584       59     -21.17634773      -0.76860774     -15.22572613
C        7.00167098       5.44741724       3.54781902       60       0.49678892      -3.33416700      -0.81768095
C        4.71705575       4.07645786      11.07071927       61       0.02594376       4.45891857      -0.64936423
C       -0.89860391       1.00182915       2.66129167       62      -4.10761070       6.24546719       4.52692032
C        3.60469554       9.85572682       9.36850028       63      -1.62074566      -0.21182084      -7.85246754
I        1.01504834       7.05787817       8.05186691       64       1.47137439      -6.47864723      -5.49221182
I        0.26229624       4.10793049       1.04540488       65       3.23042154      -1.31258178      -4.30603647
I        5.53120647       2.31494363      11.80176094       66      -0.13645566      -1.40530956      -1.90296054
I        5.91933972       7.86498076       5.04538520       67       3.04225874      -2.68254256       2.73898935
N        5.54506423       4.93218010       5.17567386       68       2.40500665      -6.48092747      -9.56577873
N        6.55891976       3.50006133      10.33789467       69       0.85549504       0.52532792       0.10806418
N        3.19285005       7.98366639       1.06228812       70      26.62463760     -41.20388794      29.63126373
N        1.38241548      -0.10799158       6.70112787       71      -3.11354852      -5.58670092       3.28962708
N        3.81606353       1.94643459       2.76609208       72    -613.38635254   -3515.46679688   -1678.54821777
N        7.59602704       6.77349040       9.90344280       73      -2.22996092      -3.70962667       1.18104506
N        2.56232707       6.87288180       5.12174232       74      -2.91094589       7.00032568      -4.31188154
N       -0.81753200       1.31498347       9.71489433       75       5.13955116      -2.25302148      -0.94621158
