64
Lattice="5.84093142 0.0 0.0 5.218854566745417e-05 8.79052035984508 0.0 -0.7622731902929095 2.930270925750141e-06 11.79981434286566" Properties=species:S:1:pos:R:3:spacegroup_kinds:I:1:forces:R:3 spacegroup="P 1" unit_cell=conventional occupancy="_JSON {\"0\": {\"Cu\": 1}, \"1\": {\"Cu\": 1}, \"2\": {\"H\": 1}, \"3\": {\"H\": 1}, \"4\": {\"H\": 1}, \"5\": {\"H\": 1}, \"6\": {\"H\": 1}, \"7\": {\"H\": 1}, \"8\": {\"H\": 1}, \"9\": {\"H\": 1}, \"10\": {\"H\": 1}, \"11\": {\"H\": 1}, \"12\": {\"H\": 1}, \"13\": {\"H\": 1}, \"14\": {\"H\": 1}, \"15\": {\"H\": 1}, \"16\": {\"H\": 1}, \"17\": {\"H\": 1}, \"18\": {\"H\": 1}, \"19\": {\"H\": 1}, \"20\": {\"H\": 1}, \"21\": {\"H\": 1}, \"22\": {\"H\": 1}, \"23\": {\"H\": 1}, \"24\": {\"H\": 1}, \"25\": {\"H\": 1}, \"26\": {\"H\": 1}, \"27\": {\"H\": 1}, \"28\": {\"C\": 1}, \"29\": {\"C\": 1}, \"30\": {\"C\": 1}, \"31\": {\"C\": 1}, \"32\": {\"C\": 1}, \"33\": {\"C\": 1}, \"34\": {\"C\": 1}, \"35\": {\"C\": 1}, \"36\": {\"C\": 1}, \"37\": {\"C\": 1}, \"38\": {\"C\": 1}, \"39\": {\"C\": 1}, \"40\": {\"C\": 1}, \"41\": {\"C\": 1}, \"42\": {\"C\": 1}, \"43\": {\"C\": 1}, \"44\": {\"C\": 1}, \"45\": {\"C\": 1}, \"46\": {\"C\": 1}, \"47\": {\"C\": 1}, \"48\": {\"C\": 1}, \"49\": {\"C\": 1}, \"50\": {\"N\": 1}, \"51\": {\"N\": 1}, \"52\": {\"O\": 1}, \"53\": {\"O\": 1}, \"54\": {\"O\": 1}, \"55\": {\"O\": 1}, \"56\": {\"O\": 1}, \"57\": {\"O\": 1}, \"58\": {\"O\": 1}, \"59\": {\"O\": 1}, \"60\": {\"O\": 1}, \"61\": {\"O\": 1}, \"62\": {\"O\": 1}, \"63\": {\"O\": 1}}" energy=-404.6224365234375 free_energy=-404.6224365234375 stress="-0.0015552991535514593 -0.00014140662096906453 0.0009443199960514903 -0.00014140662096906453 -0.0027459070552140474 -7.839840691303834e-05 0.0009443199960514903 -7.839840691303834e-05 -0.0036011207848787308" pbc="T T T"
Cu       3.26982080       1.75961193       4.86772736        0       0.22815669       0.25944686       0.13782787
Cu       1.80840743       6.15491600       6.92790490        1      -0.24434482       0.24081412      -0.08205329
H        4.75904843       0.70155338       3.12331794        2      -0.01891918      -0.03767322      -0.02732946
H        0.31719183       5.09727726       8.67427292        3      -0.06449001      -0.08003984       0.02251880
H        2.65604442       4.88048197       4.34954035        4      -0.08392050      -0.13472854       0.05573299
H        2.42176251       0.48430636       7.45036342        5       0.09388245      -0.09473312      -0.09680644
H        0.79045611       5.46999101       3.11850430        6      -0.04772918      -0.04067906      -0.04883489
H        4.28689786       1.07372516       8.67832670        7       0.03732862      -0.05375249       0.05768782
H        5.45646001       5.20088012       0.93603264        8      -0.08943489       0.02577762       0.01102058
H       -0.37826210       0.80598613      10.86085766        9       0.05946913       0.00495908      -0.01571462
H       -0.36822684       3.52623173      11.08396322       10       0.01228781      -0.00958264      -0.00250924
H        5.44547138       7.92131440       0.71323722       11      -0.01269533      -0.01316968       0.02640024
H        1.64924101       2.12241230      11.61323646       12      -0.01983940       0.00828443      -0.05404428
H        3.42694384       6.51875950       0.18542034       13       0.01566276      -0.00174372       0.05383351
H        4.36966099       1.77465923       1.09816108       14       0.09543486      -0.05857643       0.03130565
H        0.70706731       6.16879827      10.70038882       15      -0.09936820      -0.05927314      -0.01604806
H        4.77447416       2.89536795       2.41642127       16       0.00644814       0.06578486      -0.08014497
H        0.30135958       7.29035731       9.38329317       17      -0.00320998       0.05754767       0.08269320
H        2.79601149       0.05400718       1.53935211       18       0.00021707       0.05589370       0.00640483
H        2.27893742       4.44729278      10.25941019       19      -0.01003942       0.06747194      -0.03314437
H        2.66001077       6.75712105       2.65247812       20      -0.06367116      -0.11656597      -0.00203499
H        2.41846940       2.36214025       9.14636495       21       0.03342026      -0.06993324      -0.01823474
H        4.33600460       7.33438162       2.87618218       22       0.01955120       0.01771999       0.04667045
H        0.74044852       2.93923701       8.92240217       23       0.01418176       0.01806883      -0.06009941
H       -0.36610939       3.04982587       5.72791333       24      -0.10788321       0.04124358       0.04836373
H        5.44332097       7.44415433       6.06808812       25       0.14215010      -0.01742838      -0.03394132
H        0.06464569       1.75958600       4.94988816       26      -0.13555044       0.06075246       0.04172887
H        5.01084209       6.15632012       6.84847053       27       0.17626390       0.06082152      -0.05621024
C        2.28475636       3.97783386       2.66257274       28       0.10444368       0.00259714       0.13974255
C        2.78941928       8.37298353       9.13562345       29      -0.03870787       0.02949432      -0.14291489
C        1.14840368       4.75096447       2.37871792       30      -0.02342613      -0.03045970      -0.10083577
C        3.92758230       0.35533866       9.41892092       31       0.01690486      -0.03045140       0.10605469
C        0.48660102       4.58696091       1.16033694       32      -0.05302654       0.07033446       0.01848100
C        4.58994698       0.19224713      10.63732863       33       0.03812382       0.04657670       0.00429337
C        0.92495873       3.64190524       0.23132926       34       0.00349055       0.03094009      -0.07942235
C        4.14998672       8.03732052      11.56792951       35       0.04092832       0.08401717       0.01170133
C        2.04909582       2.86419128       0.53019776       36       0.03091309       0.01835088       0.00071681
C        3.02728433       7.25946185      11.26780934       37      -0.04418375       0.02544533       0.00178580
C        2.74756495       3.01887614       1.73283132       38      -0.01044646      -0.00087534       0.00051999
C        2.32857172       7.41434474      10.06488750       39      -0.01994616      -0.03818134       0.01640871
C        3.99165062       2.23186527       2.03032527       40       0.07551932      -0.13654926       0.10484177
C        1.08428225       6.62578405       9.76833790       41      -0.07913089      -0.10289039      -0.10918394
C        2.85789923       0.10938817       2.64050048       42       0.16293097      -0.03850099       0.23016191
C        2.21593535       4.50558987       9.15730292       43      -0.06224114      -0.07556599      -0.15968606
C        1.47405985       0.43915316       3.18801502       44       0.23930505      -0.14425844       0.21184106
C        3.60374786       4.83344440       8.61215737       45      -0.32892218      -0.09474565      -0.24881403
C        3.28197575       7.50684073       3.15133738       46      -0.10978658       0.13454840      -0.01359630
C        1.79549520       3.11343292       8.64700061       47       0.09209014       0.03793503       0.03583491
C        3.15860209       7.38052510       4.66409926       48      -0.07777212       0.18174662      -0.17162371
C        1.91915023       2.98524167       7.13490515       49       0.10020855       0.15467545       0.14811558
N        3.82197709       1.15505587       3.03924999       50      -0.19944087      -0.13547552      -0.88182586
N        1.25141821       5.54881198       8.76046180       51       0.31979555      -0.05461092       0.83413625
O        2.99413593       4.10969949       3.81108711       52      -0.00676739       0.02112281      -0.04521775
O        2.08246478       8.50432174       7.98583955       53      -0.01609116      -0.01369255       0.07723449
O        1.44599521       1.22825148       4.21704850       54      -0.01762729       0.00787265      -0.13727088
O        3.62833839       5.62373003       7.58266471       55       0.06696654      -0.00971609       0.15468770
O        0.46146986       8.70593464       2.68841002       56       0.19165708       0.00977646      -0.08290316
O        4.61668968       4.31029837       9.11068306       57      -0.21611217       0.00952401       0.07938969
O        3.73209121       8.20166759       5.41731534       58      -0.01071504      -0.09471275       0.06864648
O        1.34522229       3.80593493       6.38191913       59       0.00625304      -0.08233212      -0.08168334
O        2.41083672       6.40066273       5.07931062       60      -0.03651230       0.03629528       0.12430303
O        2.66747881       2.00512828       6.71852704       61       0.01585551       0.06380419      -0.10742560
O        5.14456156       2.16506156       5.46387435       62      -0.11516947      -0.06886595       0.16890934
O       -0.06612566       6.55851338       6.33386234       63       0.02727973      -0.00987998      -0.17044127
64
Lattice="5.84093142 0.0 0.0 5.218854566745417e-05 8.79052035984508 0.0 -0.7622731902929095 2.930270925750141e-06 11.79981434286566" Properties=species:S:1:pos:R:3:spacegroup_kinds:I:1:forces:R:3 spacegroup="P 1" unit_cell=conventional occupancy="_JSON {\"0\": {\"Cu\": 1}, \"1\": {\"Cu\": 1}, \"2\": {\"H\": 1}, \"3\": {\"H\": 1}, \"4\": {\"H\": 1}, \"5\": {\"H\": 1}, \"6\": {\"H\": 1}, \"7\": {\"H\": 1}, \"8\": {\"H\": 1}, \"9\": {\"H\": 1}, \"10\": {\"H\": 1}, \"11\": {\"H\": 1}, \"12\": {\"H\": 1}, \"13\": {\"H\": 1}, \"14\": {\"H\": 1}, \"15\": {\"H\": 1}, \"16\": {\"H\": 1}, \"17\": {\"H\": 1}, \"18\": {\"H\": 1}, \"19\": {\"H\": 1}, \"20\": {\"H\": 1}, \"21\": {\"H\": 1}, \"22\": {\"H\": 1}, \"23\": {\"H\": 1}, \"24\": {\"H\": 1}, \"25\": {\"H\": 1}, \"26\": {\"H\": 1}, \"27\": {\"H\": 1}, \"28\": {\"C\": 1}, \"29\": {\"C\": 1}, \"30\": {\"C\": 1}, \"31\": {\"C\": 1}, \"32\": {\"C\": 1}, \"33\": {\"C\": 1}, \"34\": {\"C\": 1}, \"35\": {\"C\": 1}, \"36\": {\"C\": 1}, \"37\": {\"C\": 1}, \"38\": {\"C\": 1}, \"39\": {\"C\": 1}, \"40\": {\"C\": 1}, \"41\": {\"C\": 1}, \"42\": {\"C\": 1}, \"43\": {\"C\": 1}, \"44\": {\"C\": 1}, \"45\": {\"C\": 1}, \"46\": {\"C\": 1}, \"47\": {\"C\": 1}, \"48\": {\"C\": 1}, \"49\": {\"C\": 1}, \"50\": {\"N\": 1}, \"51\": {\"N\": 1}, \"52\": {\"O\": 1}, \"53\": {\"O\": 1}, \"54\": {\"O\": 1}, \"55\": {\"O\": 1}, \"56\": {\"O\": 1}, \"57\": {\"O\": 1}, \"58\": {\"O\": 1}, \"59\": {\"O\": 1}, \"60\": {\"O\": 1}, \"61\": {\"O\": 1}, \"62\": {\"O\": 1}, \"63\": {\"O\": 1}}" energy=-404.642333984375 free_energy=-404.642333984375 stress="-0.0011532906210049987 -0.00013575582124758512 0.0004701841389760375 -0.00013575582124758512 -0.002762173768132925 1.0704516171244904e-05 0.0004701841389760375 1.0704516171244904e-05 -0.004219098947942257" pbc="T T T"
Cu       3.27187980       1.76223921       4.86909808        0       0.20012374       0.24203576       0.09368370
Cu       1.80563670       6.15770950       6.92665849        1      -0.22859591       0.22649038      -0.05589931
H        4.75795645       0.70249225       3.12100388        2      -0.05892959      -0.01192407      -0.02371118
H        0.31523064       5.09763022       8.67393207        3       0.02122915      -0.02834197       0.03286205
H        2.65428824       4.87953969       4.34939114        4      -0.10093899      -0.09814067       0.07420126
H        2.42262006       0.48390505       7.44907790        5       0.08876963      -0.09138270      -0.10484593
H        0.78869291       5.47004138       3.11701150        6      -0.04687596      -0.04302788      -0.05255505
H        4.28724550       1.07338664       8.67780239        7       0.03315283      -0.05576604       0.06111120
H        5.45368599       5.20283274       0.93385821        8      -0.06089649       0.00867794       0.02743971
H       -0.37715037       0.80750463      10.85969109        9       0.02132810      -0.01699599      -0.02794399
H       -0.36880635       3.52697574      11.08343629       10      -0.00201856      -0.00494749      -0.02706330
H        5.44414223       7.92205435       0.71252559       11      -0.01626226      -0.00637864       0.01345408
H        1.64667033       2.12383959      11.61042952       12      -0.01041964      -0.00781277      -0.05582902
H        3.42582360       6.51863225       0.18511412       13       0.03727884       0.03969363       0.01553875
H        4.37087509       1.77420654       1.09817798       14       0.07958598      -0.03558899       0.06355330
H        0.70418216       6.16839520      10.69852634       15      -0.09968366      -0.05411402      -0.01130618
H        4.77223147       2.89752619       2.41429408       16       0.04568432       0.07591416      -0.04129016
H        0.29918587       7.29300724       9.38363126       17       0.01011805       0.02766198       0.07705492
H        2.79633614       0.05535316       1.53767799       18      -0.00198030       0.05335216       0.10410382
H        2.27713430       4.44982250      10.25743909       19      -0.00160975       0.05576212      -0.02382993
H        2.65796653       6.75625685       2.65211321       20      -0.04258559      -0.06910846       0.01017953
H        2.41825921       2.36213020       9.14431726       21       0.03261798      -0.05721979      -0.01216760
H        4.33539723       7.33554103       2.87711147       22      -0.02293337       0.01882416       0.05369481
H        0.73918487       2.94081004       8.92042091       23       0.03865072       0.01409090      -0.06080282
H       -0.36882315       3.05127578       5.72877148       24      -0.10909433       0.02724524       0.04394799
H        5.44463796       7.44422522       6.06816345       25       0.10622261       0.06826442      -0.06267392
H        0.06191839       1.76036756       4.95018807       26      -0.15089957       0.07359612       0.05434367
H        5.01268218       6.15855676       6.84635839       27       0.12080817       0.03115965      -0.02038620
C        2.28543170       3.97853659       2.66257715       28      -0.01341794       0.02311124       0.01544303
C        2.78652044       8.37504992       9.13276634       29       0.06108409      -0.02816839       0.06893569
C        1.14633786       4.75167187       2.37600673       30       0.06653146      -0.03730705       0.02224909
C        3.92631210       0.35610052       9.41916229       31      -0.01771294      -0.01411714       0.02541031
C        0.48453686       4.58890106       1.16060224       32      -0.07583468       0.03007844      -0.11042429
C        4.58914146       0.19406967      10.63611591       33       0.07634152       0.05345463       0.04968301
C        0.92434451       3.64378611       0.22967808       34       0.01267551       0.03000611      -0.01680513
C        4.14889885       8.03980262      11.56679546       35       0.03111631       0.05299446       0.03192206
C        2.04749196       2.86397811       0.52872147       36       0.02442295       0.07706381       0.04205146
C        3.02612611       7.26103815      11.26628175       37      -0.05377252      -0.00419626       0.05290049
C        2.74704764       3.01956257       1.73207703       38      -0.00849125      -0.01622936      -0.01063249
C        2.32666041       7.41518249      10.06446188       39      -0.03542052      -0.00853152      -0.04583359
C        3.99177526       2.23189150       2.03165680       40       0.00422966      -0.13305745      -0.03856587
C        1.08159513       6.62492243       9.76612123       41      -0.04236656       0.00617366      -0.00665022
C        2.85934994       0.10919142       2.64234559       42       0.06211628       0.00125617       0.04258808
C        2.21317437       4.50610555       9.15556104       43       0.00510053      -0.04506707      -0.11022997
C        1.47536152       0.43859008       3.18943506       44       0.25607789      -0.10772882       0.15554377
C        3.60083821       4.83356355       8.60954100       45      -0.26842931      -0.13607833      -0.12336154
C        3.27917040       7.50941040       3.15006570       46      -0.03066140       0.03365679      -0.00208813
C        1.79572562       3.11493502       8.64647829       47       0.01887149       0.01889130       0.03948295
C        3.15589732       7.38319339       4.66138759       48      -0.05232962       0.16888292      -0.00437057
C        1.91853286       2.98800187       7.13656768       49       0.12038842       0.11968502      -0.02393407
N        3.81899591       1.15613776       3.03625213       50      -0.04419631      -0.17094931      -0.75160205
N        1.25190670       5.55160587       8.76331372       51       0.15422761      -0.18112141       0.66857141
O        2.99250550       4.11121875       3.80947324       52       0.04683731      -0.00274554      -0.00237092
O        2.08278504       8.50506888       7.98615189       53      -0.08308913       0.01803535      -0.05251864
O        1.44425111       1.22974260       4.21447449       54       0.00963688       0.05819299      -0.04692859
O        3.62879064       5.62391855       7.58401742       55       0.03718412       0.05920584       0.04928526
O        0.46396100       8.70862377       2.68668207       56       0.11171594      -0.04933389      -0.11619519
O        4.61393115       4.31208544       9.11207143       57      -0.22904317       0.00371450       0.06400825
O        3.73047912       8.20198576       5.41911848       58      -0.05050213      -0.12735680      -0.02628771
O        1.34503367       3.80672570       6.37950027       59       0.01542006      -0.08823960      -0.00666808
O        2.40916490       6.40231071       5.07991974       60      -0.01794861       0.06309572       0.06292622
O        2.66744888       2.00801588       6.71570895       61      -0.01507978       0.08245263      -0.02104062
O        5.14179364       2.16594777       5.46543186       62      -0.06863329      -0.06770303       0.15779668
O       -0.06686364       6.55946315       6.33137830       63       0.11110377      -0.06403983      -0.17715374
64
Lattice="5.84093142 0.0 0.0 5.218854566745417e-05 8.79052035984508 0.0 -0.7622731902929095 2.930270925750141e-06 11.79981434286566" Properties=species:S:1:pos:R:3:spacegroup_kinds:I:1:forces:R:3 spacegroup="P 1" unit_cell=conventional occupancy="_JSON {\"0\": {\"Cu\": 1}, \"1\": {\"Cu\": 1}, \"2\": {\"H\": 1}, \"3\": {\"H\": 1}, \"4\": {\"H\": 1}, \"5\": {\"H\": 1}, \"6\": {\"H\": 1}, \"7\": {\"H\": 1}, \"8\": {\"H\": 1}, \"9\": {\"H\": 1}, \"10\": {\"H\": 1}, \"11\": {\"H\": 1}, \"12\": {\"H\": 1}, \"13\": {\"H\": 1}, \"14\": {\"H\": 1}, \"15\": {\"H\": 1}, \"16\": {\"H\": 1}, \"17\": {\"H\": 1}, \"18\": {\"H\": 1}, \"19\": {\"H\": 1}, \"20\": {\"H\": 1}, \"21\": {\"H\": 1}, \"22\": {\"H\": 1}, \"23\": {\"H\": 1}, \"24\": {\"H\": 1}, \"25\": {\"H\": 1}, \"26\": {\"H\": 1}, \"27\": {\"H\": 1}, \"28\": {\"C\": 1}, \"29\": {\"C\": 1}, \"30\": {\"C\": 1}, \"31\": {\"C\": 1}, \"32\": {\"C\": 1}, \"33\": {\"C\": 1}, \"34\": {\"C\": 1}, \"35\": {\"C\": 1}, \"36\": {\"C\": 1}, \"37\": {\"C\": 1}, \"38\": {\"C\": 1}, \"39\": {\"C\": 1}, \"40\": {\"C\": 1}, \"41\": {\"C\": 1}, \"42\": {\"C\": 1}, \"43\": {\"C\": 1}, \"44\": {\"C\": 1}, \"45\": {\"C\": 1}, \"46\": {\"C\": 1}, \"47\": {\"C\": 1}, \"48\": {\"C\": 1}, \"49\": {\"C\": 1}, \"50\": {\"N\": 1}, \"51\": {\"N\": 1}, \"52\": {\"O\": 1}, \"53\": {\"O\": 1}, \"54\": {\"O\": 1}, \"55\": {\"O\": 1}, \"56\": {\"O\": 1}, \"57\": {\"O\": 1}, \"58\": {\"O\": 1}, \"59\": {\"O\": 1}, \"60\": {\"O\": 1}, \"61\": {\"O\": 1}, \"62\": {\"O\": 1}, \"63\": {\"O\": 1}}" energy=-404.65673828125 free_energy=-404.65673828125 stress="-0.0014563171425834298 -2.7989790396532044e-05 0.0004291930526960641 -2.7989790396532044e-05 -0.0031516205053776503 0.0001586969301570207 0.0004291930526960641 0.0001586969301570207 -0.004392918199300766" pbc="T T T"
Cu       3.27408897       1.76508228       4.86838655        0       0.17419927       0.23891903       0.08094810
Cu       1.80266032       6.16069553       6.92383764        1      -0.20190626       0.20248479      -0.00216605
H        4.75648222       0.70313066       3.11907746        2      -0.08594289       0.00722762      -0.02793457
H        0.31502713       5.09785927       8.67251069        3       0.04773309      -0.02039657       0.04534352
H        2.65148802       4.87839885       4.34886758        4      -0.10110259      -0.07548073       0.09410385
H        2.42395990       0.48330599       7.44650625        5       0.09170329      -0.06436463      -0.11964837
H        0.78617142       5.46983619       3.11481947        6      -0.03647356      -0.04975841      -0.05585051
H        4.28812690       1.07340845       8.67893497        7       0.01175618      -0.08852107       0.08391841
H        5.45165107       5.20418238       0.93282350        8      -0.07345421       0.01991434       0.02242573
H       -0.37760424       0.80803555      10.85774762        9       0.03539155      -0.00450860      -0.02365144
H       -0.37045534       3.52753990      11.08169882       10       0.02750075       0.00471567       0.02779558
H        5.44377745       7.92248407       0.71171771       11      -0.02854968      -0.00301805       0.00016613
H        1.64415949       2.12500944      11.60813018       12      -0.01156065       0.00097965      -0.04424004
H        3.42595809       6.52029637       0.18455568       13       0.02524387       0.03268639       0.01570311
H        4.37080657       1.77508299       1.09868001       14       0.09248333      -0.05159131       0.01472387
H        0.70142674       6.16846939      10.69797389       15      -0.09072916      -0.03468983      -0.01419143
H        4.77083300       2.90039445       2.41298605       16       0.02077948       0.04153616      -0.04613817
H        0.29772069       7.29436554       9.38478204       17      -0.01556464       0.03044569       0.04165258
H        2.79595307       0.05586147       1.53642072       18      -0.00721831       0.04726870       0.11735550
H        2.27449036       4.45272003      10.25599600       19       0.01660555       0.04087585      -0.04101718
H        2.65598356       6.75688864       2.65170485       20      -0.02956790      -0.06020832       0.01459904
H        2.41774384       2.36244842       9.14391227       21       0.00842355      -0.03338294      -0.02744514
H        4.33480401       7.33605451       2.87700219       22      -0.01817948       0.01042933       0.05468608
H        0.73771657       2.94291635       8.91766459       23       0.01818986       0.00340036      -0.04774022
H       -0.37086502       3.05158797       5.72884400       24      -0.09202654       0.06569424       0.05460802
H        5.44458317       7.44622531       6.06669497       25       0.13728517      -0.01289553      -0.04200641
H        0.05925911       1.76171817       4.95008521       26      -0.12578629       0.06523142       0.04159209
H        5.01446317       6.16080367       6.84527165       27       0.09096394       0.00762495      -0.00015000
C        2.28397891       3.97959713       2.66200700       28       0.01638728      -0.01507997      -0.00670600
C        2.78543528       8.37557944       9.13229727       29       0.00659582      -0.01948082      -0.01419759
C        1.14573584       4.75154664       2.37400861       30       0.01444560       0.01562820       0.04121426
C        3.92554033       0.35465971       9.42036286       31      -0.01218948       0.06988533      -0.09435655
C        0.48248909       4.59089606       1.15818773       32      -0.03405371       0.02120221      -0.04477169
C        4.58864583       0.19531015      10.63549231       33       0.07761423       0.02250071       0.09176956
C        0.92304915       3.64592426       0.22993048       34      -0.01443392      -0.01728535      -0.14136143
C        4.14788596       8.04169295      11.56588213       35       0.00369218       0.00656008       0.05389785
C        2.04650512       2.86526815       0.52761623       36       0.00618423       0.08035301       0.03771929
C        3.02409042       7.26239781      11.26480289       37      -0.00357049       0.02739030       0.06049459
C        2.74519679       3.02000420       1.73084261       38       0.02383061      -0.01294229       0.00181332
C        2.32460354       7.41626924      10.06265828       39      -0.03075942      -0.01550170       0.00233936
C        3.99095113       2.23228891       2.02987757       40      -0.01738191      -0.07672359       0.00602293
C        1.07929727       6.62664425       9.76597448       41       0.00093967      -0.07849786       0.01173349
C        2.86000926       0.10842769       2.64146506       42       0.00258622       0.03268668       0.02213389
C        2.21146408       4.50715003       9.15323111       43       0.03775651      -0.12954158      -0.01096955
C        1.47636809       0.43908689       3.19078952       44       0.20910671      -0.17914577       0.01855487
C        3.59792287       4.83099613       8.60691670       45      -0.25622651      -0.02535260      -0.12205298
C        3.27851198       7.50996460       3.14906003       46      -0.03913786       0.02390887       0.00283647
C        1.79416479       3.11578524       8.64585958       47       0.05389605       0.00894347       0.05143660
C        3.15339114       7.38585949       4.66029648       48      -0.05524724       0.07720065      -0.00907540
C        1.91773869       2.99092560       7.13707281       49       0.14591755       0.02320258      -0.07571310
N        3.81602343       1.15658217       3.03335780       50       0.07824466      -0.17567024      -0.69777501
N        1.25352942       5.54922482       8.76591213       51       0.00357950      -0.04281199       0.55944586
O        2.99204653       4.11201854       3.80898504       52       0.02957046      -0.01807605      -0.03358608
O        2.08029357       8.50710030       7.98341123       53      -0.02863637      -0.01603156       0.04938680
O        1.44355904       1.23158734       4.21199166       54       0.00847555       0.09091775       0.01319872
O        3.62810050       5.62468867       7.58442412       55       0.01004560       0.06528444       0.00645060
O        0.46604864       8.70772413       2.68383898       56       0.13314246      -0.01616614      -0.06433216
O        4.61120934       4.31504674       9.11199862       57      -0.16986705      -0.06609690       0.09463379
O        3.72902083       8.20107260       5.41904085       58      -0.01680006      -0.05597022       0.00133747
O        1.34431127       3.80647921       6.37837230       59      -0.02751537      -0.01013160      -0.02079374
O        2.40762901       6.40418461       5.07960771       60      -0.03148912       0.06512806       0.03358975
O        2.66544015       2.01066395       6.71311843       61       0.00632639       0.07496165       0.01735462
O        5.14045804       2.16706346       5.46555640       62      -0.09485924      -0.09726767       0.15881914
O       -0.06610154       6.55922228       6.32904239       63       0.08363333       0.04140183      -0.21793255
64
Lattice="5.84093142 0.0 0.0 5.218854566745417e-05 8.79052035984508 0.0 -0.7622731902929095 2.930270925750141e-06 11.79981434286566" Properties=species:S:1:pos:R:3:spacegroup_kinds:I:1:forces:R:3 spacegroup="P 1" unit_cell=conventional occupancy="_JSON {\"0\": {\"Cu\": 1}, \"1\": {\"Cu\": 1}, \"2\": {\"H\": 1}, \"3\": {\"H\": 1}, \"4\": {\"H\": 1}, \"5\": {\"H\": 1}, \"6\": {\"H\": 1}, \"7\": {\"H\": 1}, \"8\": {\"H\": 1}, \"9\": {\"H\": 1}, \"10\": {\"H\": 1}, \"11\": {\"H\": 1}, \"12\": {\"H\": 1}, \"13\": {\"H\": 1}, \"14\": {\"H\": 1}, \"15\": {\"H\": 1}, \"16\": {\"H\": 1}, \"17\": {\"H\": 1}, \"18\": {\"H\": 1}, \"19\": {\"H\": 1}, \"20\": {\"H\": 1}, \"21\": {\"H\": 1}, \"22\": {\"H\": 1}, \"23\": {\"H\": 1}, \"24\": {\"H\": 1}, \"25\": {\"H\": 1}, \"26\": {\"H\": 1}, \"27\": {\"H\": 1}, \"28\": {\"C\": 1}, \"29\": {\"C\": 1}, \"30\": {\"C\": 1}, \"31\": {\"C\": 1}, \"32\": {\"C\": 1}, \"33\": {\"C\": 1}, \"34\": {\"C\": 1}, \"35\": {\"C\": 1}, \"36\": {\"C\": 1}, \"37\": {\"C\": 1}, \"38\": {\"C\": 1}, \"39\": {\"C\": 1}, \"40\": {\"C\": 1}, \"41\": {\"C\": 1}, \"42\": {\"C\": 1}, \"43\": {\"C\": 1}, \"44\": {\"C\": 1}, \"45\": {\"C\": 1}, \"46\": {\"C\": 1}, \"47\": {\"C\": 1}, \"48\": {\"C\": 1}, \"49\": {\"C\": 1}, \"50\": {\"N\": 1}, \"51\": {\"N\": 1}, \"52\": {\"O\": 1}, \"53\": {\"O\": 1}, \"54\": {\"O\": 1}, \"55\": {\"O\": 1}, \"56\": {\"O\": 1}, \"57\": {\"O\": 1}, \"58\": {\"O\": 1}, \"59\": {\"O\": 1}, \"60\": {\"O\": 1}, \"61\": {\"O\": 1}, \"62\": {\"O\": 1}, \"63\": {\"O\": 1}}" energy=-404.66790771484375 free_energy=-404.66790771484375 stress="-0.0013422300107777119 -0.00022204955166671425 0.00047431723214685917 -0.00022204955166671425 -0.003246698994189501 0.0001689943455858156 0.00047431723214685917 0.0001689943455858156 -0.00457114027813077" pbc="T T T"
Cu       3.27638730       1.76585621       4.86781715        0       0.14329559       0.23851141       0.06669685
Cu       1.80010243       6.16340925       6.92163821        1      -0.20504139       0.19168173       0.03337973
H        4.75381743       0.70373938       3.11699644        2      -0.04329272      -0.00806286      -0.02941132
H        0.31397717       5.09814145       8.67293321        3       0.04340763      -0.00969747       0.05372754
H        2.64892567       4.87772042       4.34846086        4      -0.08890646      -0.08971472       0.08213623
H        2.42506904       0.48409905       7.44377484        5       0.06935339      -0.10221545      -0.08684376
H        0.78388611       5.46937603       3.11299975        6      -0.04912287      -0.01526649      -0.02290961