120
Lattice="9.23533688 0.0 0.0 2.0618465078021845e-05 9.92898830997859 0.0 -3.331901031076237e-05 6.027197142644842e-07 13.979486439960281" Properties=species:S:1:pos:R:3:spacegroup_kinds:I:1:forces:R:3 spacegroup="P 1" unit_cell=conventional occupancy="_JSON {\"0\": {\"Zn\": 1}, \"1\": {\"Zn\": 1}, \"2\": {\"Zn\": 1}, \"3\": {\"Zn\": 1}, \"4\": {\"H\": 1}, \"5\": {\"H\": 1}, \"6\": {\"H\": 1}, \"7\": {\"H\": 1}, \"8\": {\"H\": 1}, \"9\": {\"H\": 1}, \"10\": {\"H\": 1}, \"11\": {\"H\": 1}, \"12\": {\"H\": 1}, \"13\": {\"H\": 1}, \"14\": {\"H\": 1}, \"15\": {\"H\": 1}, \"16\": {\"H\": 1}, \"17\": {\"H\": 1}, \"18\": {\"H\": 1}, \"19\": {\"H\": 1}, \"20\": {\"H\": 1}, \"21\": {\"H\": 1}, \"22\": {\"H\": 1}, \"23\": {\"H\": 1}, \"24\": {\"H\": 1}, \"25\": {\"H\": 1}, \"26\": {\"H\": 1}, \"27\": {\"H\": 1}, \"28\": {\"H\": 1}, \"29\": {\"H\": 1}, \"30\": {\"H\": 1}, \"31\": {\"H\": 1}, \"32\": {\"H\": 1}, \"33\": {\"H\": 1}, \"34\": {\"H\": 1}, \"35\": {\"H\": 1}, \"36\": {\"H\": 1}, \"37\": {\"H\": 1}, \"38\": {\"H\": 1}, \"39\": {\"H\": 1}, \"40\": {\"H\": 1}, \"41\": {\"H\": 1}, \"42\": {\"H\": 1}, \"43\": {\"H\": 1}, \"44\": {\"C\": 1}, \"45\": {\"C\": 1}, \"46\": {\"C\": 1}, \"47\": {\"C\": 1}, \"48\": {\"C\": 1}, \"49\": {\"C\": 1}, \"50\": {\"C\": 1}, \"51\": {\"C\": 1}, \"52\": {\"C\": 1}, \"53\": {\"C\": 1}, \"54\": {\"C\": 1}, \"55\": {\"C\": 1}, \"56\": {\"C\": 1}, \"57\": {\"C\": 1}, \"58\": {\"C\": 1}, \"59\": {\"C\": 1}, \"60\": {\"C\": 1}, \"61\": {\"C\": 1}, \"62\": {\"C\": 1}, \"63\": {\"C\": 1}, \"64\": {\"C\": 1}, \"65\": {\"C\": 1}, \"66\": {\"C\": 1}, \"67\": {\"C\": 1}, \"68\": {\"C\": 1}, \"69\": {\"C\": 1}, \"70\": {\"C\": 1}, \"71\": {\"C\": 1}, \"72\": {\"C\": 1}, \"73\": {\"C\": 1}, \"74\": {\"C\": 1}, \"75\": {\"C\": 1}, \"76\": {\"C\": 1}, \"77\": {\"C\": 1}, \"78\": {\"C\": 1}, \"79\": {\"C\": 1}, \"80\": {\"C\": 1}, \"81\": {\"C\": 1}, \"82\": {\"C\": 1}, \"83\": {\"C\": 1}, \"84\": {\"C\": 1}, \"85\": {\"C\": 1}, \"86\": {\"C\": 1}, \"87\": {\"C\": 1}, \"88\": {\"N\": 1}, \"89\": {\"N\": 1}, \"90\": {\"N\": 1}, \"91\": {\"N\": 1}, \"92\": {\"N\": 1}, \"93\": {\"N\": 1}, \"94\": {\"N\": 1}, \"95\": {\"N\": 1}, \"96\": {\"N\": 1}, \"97\": {\"N\": 1}, \"98\": {\"N\": 1}, \"99\": {\"N\": 1}, \"100\": {\"N\": 1}, \"101\": {\"N\": 1}, \"102\": {\"N\": 1}, \"103\": {\"N\": 1}, \"104\": {\"N\": 1}, \"105\": {\"N\": 1}, \"106\": {\"N\": 1}, \"107\": {\"N\": 1}, \"108\": {\"N\": 1}, \"109\": {\"N\": 1}, \"110\": {\"N\": 1}, \"111\": {\"N\": 1}, \"112\": {\"O\": 1}, \"113\": {\"O\": 1}, \"114\": {\"O\": 1}, \"115\": {\"O\": 1}, \"116\": {\"O\": 1}, \"117\": {\"O\": 1}, \"118\": {\"O\": 1}, \"119\": {\"O\": 1}}" energy=-814.18896484375 free_energy=-814.18896484375 stress="-0.00046198119525797665 -6.784541619708762e-05 -9.773183410288766e-05 -6.784541619708762e-05 -0.001004640944302082 -5.798127858724911e-06 -9.773183410288766e-05 -5.798127858724911e-06 -0.0030565140768885612" pbc="T T T"
Zn       1.17700465       5.73721517      11.90157258        0      -0.09231057      -0.04819026       0.08815692
Zn       3.44086462       4.19112817       4.91297007        1       0.07596564       0.05479317       0.07529238
Zn       8.05749560       0.77324855       9.06501050        2       0.08273164      -0.05333950      -0.06948464
Zn       5.79416644       9.15612217       2.07550877        3      -0.09039481       0.04648596      -0.07566576
H        2.92671480       4.84317154       9.08622841        4       0.02293092      -0.01161504       0.03420607
H        1.68993759       5.08638625       2.09696356        5      -0.02319038       0.01880793       0.02461427
H        6.30753643       9.80721886      11.88089105        6      -0.03947327      -0.01554067      -0.02826520
H        7.54385435       0.12168846       4.89072706        7       0.00302216       0.01281952      -0.01112371
H        7.53200281       5.57911978      11.01942603        8       0.01544948       0.03414831       0.01470728
H        6.31815786       4.35154467       4.02819920        9       0.03580913      -0.02811654      -0.00765523
H        1.70046250       0.61379416       9.94808974       10       0.05607817       0.02220335       0.00959861
H        2.91407710       9.31476218       2.95787084       11       0.01020859      -0.03553060      -0.01543501
H        7.20966122       4.76368804       8.64586366       12       0.00244638      -0.05983670      -0.01523137
H        6.64327773       5.16652288       1.65666134       13      -0.02539128       0.05564345      -0.02456394
H        2.02393765       9.72789487      12.32335286       14       0.02300103      -0.04837179      -0.01023981
H        2.59087626       0.20191547       5.33175903       15       0.07923322       0.07282718       0.06652542
H        3.49838791       6.39476300      13.87200706       16      -0.00207010      -0.05047752      -0.10364476
H        1.11770148       3.53709901       6.88141589       17       0.02949170       0.02763449      -0.03923096
H        5.73459452       1.42778693       7.09777560       18       0.04924338      -0.00847047      -0.00066316
H        8.11590506       8.50127742       0.10607051       19      -0.04024926       0.02586182       0.03718188
H        7.81254797       3.40293631      12.74371959       20       0.00600076       0.02346830       0.05312420
H        6.03770468       6.52629096       5.75439152       21      -0.00331012      -0.02173889       0.05621393
H        1.41975431       8.36913015       8.22319495       22      -0.02478489      -0.00820877      -0.04432819
H        3.19510961       1.56124193       1.23331627       23       0.01670033      -0.01145868      -0.05184316
H        7.80998356       1.72856810      12.15384508       24      -0.04135253      -0.07083881       0.02057517
H        6.04074076       8.20119026       5.16362850       25       0.04665437       0.07243784       0.03728311
H        1.42348803       6.69302374       8.81392968       26       0.03306781      -0.05627349      -0.03713095
H        3.19189185       3.23685439       1.82313958       27      -0.02862538       0.05613832      -0.02627340
H        0.93153338       3.09716024      13.60805016       28       0.01936812       0.00725903       0.01259461
H        3.68373289       6.83252590       6.61948948       29      -0.00297344       0.00803823       0.00232515
H        8.30287820       8.06159153       7.35718572       30      -0.01625912       0.00171873       0.00230130
H        5.54929931       1.86728350       0.36830147       31       0.03933920      -0.02105274      -0.01062757
H        0.92652298       1.42248653      13.00728676       32      -0.00911361       0.05148897      -0.01238935
H        3.68806382       8.50676683       6.01781294       33       0.01165827      -0.05052232      -0.01958244
H        8.30576426       6.38695244       7.95965544       34       0.01580705       0.06147395       0.01659396
H        5.54463067       3.54200903       0.96841048       35       0.04059929       0.00139846       0.04714844
H        9.04929789       1.90903150       0.32815145       36       0.00849418      -0.01344500       0.00488051
H        4.80097126       8.02143256       7.31710822       37      -0.00361241       0.01778731       0.01675998
H        0.18300948       6.87265693       6.65853054       38      -0.01895748      -0.00363938       0.04018769
H        4.43228872       3.05614232      13.64883415       39       0.03320706       0.00063025       0.03149204
H        6.00356234       6.16850691      13.32159145       40       0.12976779       0.02116995       0.08542664
H        7.84725234       3.76111219       6.33255843       41      -0.10189722      -0.02110915       0.06595740
H        3.22993391       1.20384644       7.64481754       42      -0.07396363       0.01308224      -0.02339092
H        1.38684445       8.72456113       0.65520012       43       0.10042159      -0.01502932      -0.04820020
C        5.06611316       4.76346063       8.74629439       44       0.15739824       0.01170269       0.07176751
C        8.78428408       5.16330222       1.75706875       45      -0.09613807       0.03728646      -0.02323785
C        4.16666502       9.73042581      12.22216200       46      -0.10899699      -0.01804291      -0.04963475
C        0.44971415       0.19882082       5.22974104       47       0.10351112       0.03262665       0.04651195
C        4.95138542       4.37673855       7.30316507       48      -0.07403614       0.02116400      -0.03379691
C        8.89965735       5.55295868       0.31185069       49      -0.02143859      -0.03545974       0.04367369
C        4.28167240       9.34152544      13.66417088       50       0.07345375       0.02227551       0.04495317
C        0.33398450       0.58933373       6.67457688       51      -0.03644115      -0.04100664       0.01871783
C        3.91622043       4.99678347       9.51753899       52       0.01459390      -0.06778008       0.00558197
C        0.69984735       4.93332406       2.52659855       53      -0.03706191       0.00493970       0.10706689
C        5.31677821       0.03149014      11.45141901       54       0.01803848      -0.03261355      -0.06070501
C        8.53292184       9.89494738       4.46148554       55       0.08607337       0.05380473      -0.07586791
C        4.09802113       5.42206678      10.83036469       56       0.04354247       0.05917560      -0.05273157
C        0.51833274       4.50443266       3.84063264       57      -0.06536680      -0.00663051      -0.08389309
C        5.13557319       0.45805188      10.13788633       58      -0.00994864       0.03515577       0.08008608
C        8.71501939       9.46939353       3.14764618       59       0.06031844      -0.01720290       0.10512912
C        5.40057759       5.61549705      11.35307045       60      -0.01316381       0.02163740       0.00112174
C        8.45096162       4.31214648       4.36689200       61      -0.01132041       0.01762666      -0.25050661
C        3.83406288       0.65135170       9.61562849       62      -0.01135451       0.03944711      -0.03096018
C        0.78215189       9.27808467       2.62469261       63       0.03824836      -0.05208763       0.03938302
C        6.54609737       5.40136061      10.59596237       64      -0.08021899       0.02985441      -0.02476609
C        7.30626044       4.52707930       3.60429941       65       0.03850228      -0.08009552       0.16185138
C        2.68875892       0.43649889      10.37212451       66      -0.01730964       0.04756837       0.00492357
C        1.92831690       9.49159690       3.38247581       67      -0.07127257      -0.03021883       0.00597119
C        6.35442104       4.96086470       9.28898154       68      -0.01521331      -0.10538339      -0.13083491
C        7.49715790       4.96672277       2.29971699       69       0.02453544       0.12289096      -0.18010437
C        2.87966642       9.92662854      11.67948239       70      -0.05201027      -0.11113264       0.13746168
C        1.73886106       0.00296121       4.68970443       71      -0.12008627       0.08083252       0.03975017
C        3.90307659       6.08725814      12.90803447       72       0.06291711       0.02304851       0.02822210
C        0.71370156       3.84209262       5.91893213       73      -0.07850069       0.00612095      -0.05566141
C        5.33152963       1.12465792       8.05968849       74      -0.14449224      -0.04753776       0.11080135
C        8.51833407       8.80620183       1.06901922       75       0.25340465       0.01559856       0.10506399
C        8.99099354       3.07044905      11.03604184       76       0.02882675      -0.09507909       0.03411621
C        4.86037642       6.86126124       4.04660305       77      -0.10066511      -0.03910503       0.03528899
C        0.24244501       8.03315468       9.93014503       78      -0.08176368      -0.02433065       0.04144776
C        4.37365071       1.89546850       2.94037928       79       0.05616312       0.03379774       0.04955620
C        8.44786823       2.59818694      12.34442917       80      -0.02873939       0.00349485       0.01341067
C        5.40286034       7.33201159       5.35653994       81       0.04752374      -0.00277167      -0.06697610
C        0.78431589       7.56211880       8.62130846       82       0.11294237       0.02633850       0.03608490
C        3.83008469       2.36665063       1.63298892       83      -0.00461447       0.02014107      -0.05287152
C        0.28951764       2.23835394      13.37391747       84      -0.04741494       0.05332655      -0.10326819
C        4.32629180       7.69146663       6.38352246       85      -0.00004128      -0.06207117      -0.05994812
C        8.94439834       7.20281365       7.59473292       86       0.00172166       0.02320723      -0.01241547
C        4.91017064       2.72686606       0.60378745       87      -0.18940544      -0.09156606       0.04888028
N        3.17925443       5.73713670      11.84250655       88      -0.17162406      -0.01782970      -0.02282540
N        1.43767903       4.19316404       4.85287049       89       0.14705047      -0.01096260       0.00946745
N        6.05417764       0.77165500       9.12521954       90       0.20206699       0.00022062       0.02614821
N        7.79732504       9.15783071       2.13614601       91      -0.22470286      -0.01782771      -0.04071354
N        5.23041777       6.02997218      12.66423861       92      -0.03927244       0.05043101       0.14986214
N        8.62094861       3.89711615       5.67394046       93       0.04267634      -0.06774954       0.28388447
N        4.00384130       1.06718147       8.30487445       94      -0.00864711       0.06543636      -0.23291948
N        0.61397177       8.86068725       1.31509820       95      -0.16401935      -0.04428290      -0.24012053
N        0.44792707       4.20198341      10.83572691       96       0.10751626       0.03926241       0.10934979
N        4.16727005       5.72617686       3.84693573       97      -0.02542474       0.10340974       0.07352155
N        8.78481130       9.16641065      10.13156157       98      -0.06203236      -0.01489925      -0.13434166
N        5.06640330       0.76215087       3.14202756       99       0.06683011       0.04203548      -0.13938925
N        0.67010870       4.30792045       9.49658103      100      -0.03320658      -0.00128159      -0.11944731
N        3.94742522       5.62267226       2.50725733      101      -0.03337841      -0.10583001      -0.10628310
N        8.56421875       9.27210444      11.47081956      102      -0.00210488       0.04196356       0.07757883
N        5.28883309       0.65800740       4.48047254      103      -0.02805817      -0.02624688       0.12061343
N        0.14735719       3.28064671       8.90458519      104       0.03126019       0.12000771      -0.07481781
N        4.46808877       6.64868618       1.91444761      105      -0.01492838      -0.10350071      -0.06174240
N        9.08468995       8.24596873      12.06241261      106       0.02989999       0.03602093       0.08870596
N        4.76579203       1.68448241       5.07229057      107       0.02651257      -0.09353182       0.09861109
N        8.80933910       2.47834639       9.83819233      108      -0.00944072      -0.02202937      -0.05827585
N        5.04074591       7.45061727       2.84800050      109       0.05255342       0.09728283      -0.03128552
N        0.42416336       7.44155145      11.12882248      110      -0.01837561       0.01745218       0.04406454
N        4.19190098       2.48735315       4.13943528      111       0.00517213      -0.01344702       0.00731325
O        3.73556044       4.30425925       6.84088186      112      -0.08973938       0.06638382       0.02285796
O        0.87896758       5.62566965      13.83135979      113       0.14740419      -0.06214305      -0.03273804
O        5.49747316       9.26879971       0.14713254      114       0.09439358       0.06645304      -0.01342955
O        8.35320584       0.66092535       7.13710330      115      -0.06100404      -0.06507681      -0.03315654
O        5.97857990       4.18607641       6.60803755      116       0.01343444       0.03898995      -0.12149394
O        7.87122134       5.74530186      13.59722054      117       0.02551121      -0.04716718      -0.10587655
O        3.25434777       9.14923515       0.37885057      118      -0.01615474       0.03690257       0.13235837
O        1.36211607       0.78147612       7.36954614      119      -0.04363611      -0.04590310       0.08769781
120
Lattice="9.23533688 0.0 0.0 2.0618465078021845e-05 9.92898830997859 0.0 -3.331901031076237e-05 6.027197142644842e-07 13.979486439960281" Properties=species:S:1:pos:R:3:spacegroup_kinds:I:1:forces:R:3 spacegroup="P 1" unit_cell=conventional occupancy="_JSON {\"0\": {\"Zn\": 1}, \"1\": {\"Zn\": 1}, \"2\": {\"Zn\": 1}, \"3\": {\"Zn\": 1}, \"4\": {\"H\": 1}, \"5\": {\"H\": 1}, \"6\": {\"H\": 1}, \"7\": {\"H\": 1}, \"8\": {\"H\": 1}, \"9\": {\"H\": 1}, \"10\": {\"H\": 1}, \"11\": {\"H\": 1}, \"12\": {\"H\": 1}, \"13\": {\"H\": 1}, \"14\": {\"H\": 1}, \"15\": {\"H\": 1}, \"16\": {\"H\": 1}, \"17\": {\"H\": 1}, \"18\": {\"H\": 1}, \"19\": {\"H\": 1}, \"20\": {\"H\": 1}, \"21\": {\"H\": 1}, \"22\": {\"H\": 1}, \"23\": {\"H\": 1}, \"24\": {\"H\": 1}, \"25\": {\"H\": 1}, \"26\": {\"H\": 1}, \"27\": {\"H\": 1}, \"28\": {\"H\": 1}, \"29\": {\"H\": 1}, \"30\": {\"H\": 1}, \"31\": {\"H\": 1}, \"32\": {\"H\": 1}, \"33\": {\"H\": 1}, \"34\": {\"H\": 1}, \"35\": {\"H\": 1}, \"36\": {\"H\": 1}, \"37\": {\"H\": 1}, \"38\": {\"H\": 1}, \"39\": {\"H\": 1}, \"40\": {\"H\": 1}, \"41\": {\"H\": 1}, \"42\": {\"H\": 1}, \"43\": {\"H\": 1}, \"44\": {\"C\": 1}, \"45\": {\"C\": 1}, \"46\": {\"C\": 1}, \"47\": {\"C\": 1}, \"48\": {\"C\": 1}, \"49\": {\"C\": 1}, \"50\": {\"C\": 1}, \"51\": {\"C\": 1}, \"52\": {\"C\": 1}, \"53\": {\"C\": 1}, \"54\": {\"C\": 1}, \"55\": {\"C\": 1}, \"56\": {\"C\": 1}, \"57\": {\"C\": 1}, \"58\": {\"C\": 1}, \"59\": {\"C\": 1}, \"60\": {\"C\": 1}, \"61\": {\"C\": 1}, \"62\": {\"C\": 1}, \"63\": {\"C\": 1}, \"64\": {\"C\": 1}, \"65\": {\"C\": 1}, \"66\": {\"C\": 1}, \"67\": {\"C\": 1}, \"68\": {\"C\": 1}, \"69\": {\"C\": 1}, \"70\": {\"C\": 1}, \"71\": {\"C\": 1}, \"72\": {\"C\": 1}, \"73\": {\"C\": 1}, \"74\": {\"C\": 1}, \"75\": {\"C\": 1}, \"76\": {\"C\": 1}, \"77\": {\"C\": 1}, \"78\": {\"C\": 1}, \"79\": {\"C\": 1}, \"80\": {\"C\": 1}, \"81\": {\"C\": 1}, \"82\": {\"C\": 1}, \"83\": {\"C\": 1}, \"84\": {\"C\": 1}, \"85\": {\"C\": 1}, \"86\": {\"C\": 1}, \"87\": {\"C\": 1}, \"88\": {\"N\": 1}, \"89\": {\"N\": 1}, \"90\": {\"N\": 1}, \"91\": {\"N\": 1}, \"92\": {\"N\": 1}, \"93\": {\"N\": 1}, \"94\": {\"N\": 1}, \"95\": {\"N\": 1}, \"96\": {\"N\": 1}, \"97\": {\"N\": 1}, \"98\": {\"N\": 1}, \"99\": {\"N\": 1}, \"100\": {\"N\": 1}, \"101\": {\"N\": 1}, \"102\": {\"N\": 1}, \"103\": {\"N\": 1}, \"104\": {\"N\": 1}, \"105\": {\"N\": 1}, \"106\": {\"N\": 1}, \"107\": {\"N\": 1}, \"108\": {\"N\": 1}, \"109\": {\"N\": 1}, \"110\": {\"N\": 1}, \"111\": {\"N\": 1}, \"112\": {\"O\": 1}, \"113\": {\"O\": 1}, \"114\": {\"O\": 1}, \"115\": {\"O\": 1}, \"116\": {\"O\": 1}, \"117\": {\"O\": 1}, \"118\": {\"O\": 1}, \"119\": {\"O\": 1}}" energy=-814.2021484375 free_energy=-814.2021484375 stress="-7.349583029281348e-05 -7.835863652871922e-05 -0.00012808709288947284 -7.835863652871922e-05 -0.000867387861944735 5.038591189077124e-05 -0.00012808709288947284 5.038591189077124e-05 -0.0016141218366101384" pbc="T T T"
Zn       1.17445558       5.73634775      11.90230972        0      -0.08745313      -0.03450662       0.07288419
Zn       3.44259582       4.19180856       4.91196097        1       0.05564434       0.05561491       0.06660843
Zn       8.05877099       0.77303611       9.06311074        2       0.07144750      -0.05038857      -0.07905832
Zn       5.79309192       9.15740236       2.07358415        3      -0.09475286       0.03966492      -0.06143075
H        2.92700312       4.84365635       9.08618257        4      -0.02269760      -0.02228728       0.00090514
H        1.68828127       5.08717588       2.09617706        5      -0.01552406       0.02110935       0.02779330
H        6.30508922       9.80769628      11.87938862        6       0.00887984      -0.02717727      -0.00383187
H        7.54318026       0.12279484       4.89005651        7       0.04584566       0.01055694      -0.03382712
H        7.53072688       5.58011047      11.01790840        8      -0.00923888       0.03166895       0.00903177
H        6.31753895       4.35207524       4.02665156        9       0.00856949      -0.03750044       0.01782129
H        1.69992092       0.61484726       9.94759748       10       0.05579999       0.02406851       0.00173705
H        2.91374815       9.31409427       2.95531794       11      -0.06185287      -0.01776857       0.01892651
H        7.20817857       4.76298996       8.64435009       12       0.03749017      -0.06855454      -0.03443669
H        6.64235797       5.16843441       1.65508521       13      -0.04667974       0.05874338      -0.03419898
H        2.02363563       9.72686934      12.32238626       14      -0.00162026      -0.05165749       0.00458258
H        2.59123742       0.20292516       5.33276636       15       0.00788964       0.05604303       0.00240582
H        3.49649641       6.39346062      13.87031311       16       0.00040511      -0.04196084      -0.09618013
H        1.11646687       3.53902324       6.88061704       17       0.02520909       0.02886613      -0.04611541
H        5.73524980       1.42866642       7.09633943       18       0.00860083      -0.03092368       0.07412335
H        8.11340613       8.50137932       0.10419317       19       0.01607910       0.05951609       0.13803014
H        7.81080038       3.40427142      12.74340471       20       0.03588500      -0.02303336       0.02082935
H        6.03743428       6.52536865       5.75381529       21      -0.02862389       0.00885187       0.03647237
H        1.41727796       8.36972007       8.22160260       22      -0.01165816      -0.00648398      -0.03979629
H        3.19372205       1.56123666       1.23080097       23       0.02971364       0.00429548      -0.02670691
H        7.80800793       1.72722370      12.15199016       24      -0.01401437      -0.03460373       0.02693044
H        6.04011214       8.20116422       5.16288632       25       0.05044788       0.08118017       0.03154301
H        1.42349761       6.69203558       8.81251842       26       0.01911437      -0.03012535      -0.03195481
H        3.18900686       3.23896705       1.82115338       27       0.01015101       0.00270549      -0.02919380
H        0.93043329       3.09770180      13.60742638       28       0.02136359       0.01619700       0.00201549
H        3.68335403       6.83234296       6.61873749       29      -0.01548321      -0.01038145      -0.00058828
H        8.30198486       8.06187747       7.35621894       30      -0.01020691       0.00248496       0.00018135
H        5.54896138       1.86643955       0.36720889       31       0.00406575       0.01192814       0.00347681
H        0.92429966       1.42302576      13.00578326       32      -0.00448577       0.05782344      -0.01402350
H        3.68649956       8.50519838       6.01506293       33       0.00148129      -0.03539234      -0.02121673
H        8.30432168       6.38870017       7.95807484       34       0.00261080       0.03405505       0.02485139
H        5.54442062       3.54184198       0.96827557       35       0.00324093      -0.04069438       0.02781820
H        9.04896759       1.90936844       0.32755833       36       0.01806456       0.00238004      -0.03501638
H        4.79986269       8.02156961       7.31711178       37      -0.03262910       0.00366541      -0.04387262
H        0.18195217       6.87299999       6.65797062       38      -0.00336006      -0.01472931       0.01160561
H        4.43186823       3.05641572      13.64720703       39       0.03240627      -0.00554524       0.04723331
H        6.00581267       6.17108861      13.32317240       40       0.02701518      -0.00096919       0.00541843
H        7.84451206       3.76191673       6.33235581       41      -0.10293315      -0.02494886       0.08584656
H        3.22736593       1.20368937       7.64321539       42      -0.08250032       0.01751046      -0.04005591
H        1.38756644       8.72266976       0.65336779       43       0.06129480      -0.00586221      -0.02643785
C        5.06747039       4.76298820       8.74625819       44       0.03112812      -0.01775325      -0.03355128
C        8.78170738       5.16440977       1.75624516       45       0.00325841       0.04259153      -0.03234240
C        4.16423293       9.73057865      12.22006380       46      -0.01029992      -0.04444469       0.03496325
C        0.45148141       0.20051998       5.22998556       47      -0.05955969       0.03027743      -0.00583929
C        4.94858613       4.37769946       7.30201506       48       0.11696553      -0.00429107      -0.11596054
C        8.89920538       5.55288048       0.31043169       49       0.05059862      -0.02992751       0.06475985
C        4.28238860       9.34248122      13.66311611       50      -0.07063780      -0.01212923       0.12515199
C        0.33377436       0.59006623       6.67313650       51      -0.14213914      -0.04304555       0.07417232
C        3.91558880       4.99660778       9.51519545       52       0.08990736      -0.05204150       0.06911382
C        0.69905520       4.93446159       2.52723227       53      -0.09668847       0.01891270       0.01225944
C        5.31604234       0.03121496      11.45018383       54      -0.05014330      -0.01980799      -0.05624963
C        8.53319483       9.89666798       4.45921048       55       0.07770422       0.07566758       0.05658204
C        4.09813885       5.42178050      10.82764841       56      -0.06052974       0.07991858       0.02169216
C        0.51644249       4.50444642       3.83840211       57       0.02042234      -0.03349817       0.01478720
C        5.13505267       0.45920665      10.13869967       58       0.01654676       0.05104847      -0.03919926
C        8.71531923       9.46919370       3.14860716       59      -0.02190223      -0.03372501      -0.01372427
C        5.39949106       5.61602550      11.35106856       60      -0.03520340       0.04652474       0.10849227
C        8.44928986       4.31188647       4.36399594       61       0.04981515      -0.04259538      -0.03140008
C        3.83367207       0.65265886       9.61418112       62      -0.02512699       0.04283174      -0.02616525
C        0.78151530       9.27757923       2.62453512       63       0.00518358      -0.07718135      -0.05684970
C        6.54362629       5.40243091      10.59516843       64       0.01066246      -0.00247257      -0.10222553
C        7.30582740       4.52620429       3.60559651       65       0.00421227       0.00122380      -0.07214500
C        2.68889316       0.43806624      10.36992424       66      -0.03329911       0.00663483       0.11044672
C        1.92571888       9.49207367       3.38056697       67       0.06048206      -0.02421067       0.05525560
C        6.35373371       4.95909244       9.28665800       68       0.01250199      -0.04928293      -0.00481533
C        7.49623738       4.96887334       2.29696906       69      -0.00899212       0.05508008      -0.00261177
C        2.87900460       9.92575103      11.67967647       70      -0.08502841      -0.05594916      -0.00784402
C        1.73623500       0.00483642       4.68941859       71       0.07860592       0.06494015       0.02846105
C        3.90305911       6.08828157      12.90664380       72      -0.04679491      -0.01095478       0.00477408
C        0.71110346       3.84301548       5.91804490       73       0.04820193       0.00457833      -0.05731010
C        5.32901217       1.12549314       8.05990016       74      -0.00244998      -0.02588230      -0.00687841
C        8.51994140       8.80721393       1.06929617       75       0.02171600      -0.03082673      -0.03880773
C        8.99142101       3.07074793      11.03505028       76      -0.03074109      -0.15723114       0.02160698
C        4.85825356       6.86184963       4.04661742       77      -0.08108914       0.00943208      -0.05415630
C        0.24108215       8.03413319       9.92891292       78      -0.08278094      -0.06554632       0.09874892
C        4.37433814       1.89604963       2.94051106       79      -0.01966968       0.09567699      -0.02811682
C        8.44664740       2.59792133      12.34256643       80      -0.08672091       0.03209617       0.03234994
C        5.40227355       7.33220677       5.35478840       81       0.05286002      -0.03522022      -0.01084116
C        0.78410353       7.56223516       8.62152842       82       0.08610743      -0.00463113      -0.01808134
C        3.82866568       2.36718379       1.63179096       83      -0.05606642       0.02887300      -0.01006325
C        0.28795807       2.24003805      13.37142442       84      -0.05010187       0.00115095      -0.03753138
C        4.32466961       7.69095051       6.38140269       85       0.06210511      -0.03813310       0.00569963
C        8.94348006       7.20274561       7.59297795       86       0.01771937       0.06627054       0.04220971
C        4.90739319       2.72604350       0.60354954       87      -0.08406941      -0.05806510       0.01632515
N        3.17631002       5.73646069      11.84146015       88      -0.03247574      -0.00626134      -0.03368590
N        1.43869587       4.19310570       4.85186784       89       0.00530553      -0.00776480       0.01439714
N        6.05529070       0.77160376       9.12369427       90       0.08333650       0.00933548       0.05068186