69
Lattice="8.91794943 0.0 0.0 3.9314863879581217 9.62581115159954 0.0 -0.1951489409256924 4.618257037101233 10.707612652831946" Properties=species:S:1:pos:R:3:spacegroup_kinds:I:1:forces:R:3 spacegroup="P 1" unit_cell=conventional occupancy="_JSON {\"0\": {\"Zn\": 1}, \"1\": {\"H\": 1}, \"2\": {\"H\": 1}, \"3\": {\"H\": 1}, \"4\": {\"H\": 1}, \"5\": {\"H\": 1}, \"6\": {\"H\": 1}, \"7\": {\"H\": 1}, \"8\": {\"H\": 1}, \"9\": {\"H\": 1}, \"10\": {\"H\": 1}, \"11\": {\"H\": 1}, \"12\": {\"H\": 1}, \"13\": {\"H\": 1}, \"14\": {\"H\": 1}, \"15\": {\"H\": 1}, \"16\": {\"H\": 1}, \"17\": {\"H\": 1}, \"18\": {\"H\": 1}, \"19\": {\"H\": 1}, \"20\": {\"H\": 1}, \"21\": {\"H\": 1}, \"22\": {\"H\": 1}, \"23\": {\"H\": 1}, \"24\": {\"H\": 1}, \"25\": {\"H\": 1}, \"26\": {\"H\": 1}, \"27\": {\"H\": 1}, \"28\": {\"H\": 1}, \"29\": {\"C\": 1}, \"30\": {\"C\": 1}, \"31\": {\"C\": 1}, \"32\": {\"C\": 1}, \"33\": {\"C\": 1}, \"34\": {\"C\": 1}, \"35\": {\"C\": 1}, \"36\": {\"C\": 1}, \"37\": {\"C\": 1}, \"38\": {\"C\": 1}, \"39\": {\"C\": 1}, \"40\": {\"C\": 1}, \"41\": {\"C\": 1}, \"42\": {\"C\": 1}, \"43\": {\"C\": 1}, \"44\": {\"C\": 1}, \"45\": {\"C\": 1}, \"46\": {\"C\": 1}, \"47\": {\"C\": 1}, \"48\": {\"C\": 1}, \"49\": {\"C\": 1}, \"50\": {\"C\": 1}, \"51\": {\"C\": 1}, \"52\": {\"C\": 1}, \"53\": {\"C\": 1}, \"54\": {\"C\": 1}, \"55\": {\"N\": 1}, \"56\": {\"N\": 1}, \"57\": {\"N\": 1}, \"58\": {\"N\": 1}, \"59\": {\"Cl\": 1}, \"60\": {\"Cl\": 1}, \"61\": {\"O\": 1}, \"62\": {\"O\": 1}, \"63\": {\"O\": 1}, \"64\": {\"O\": 1}, \"65\": {\"O\": 1}, \"66\": {\"O\": 1}, \"67\": {\"O\": 1}, \"68\": {\"O\": 1}}" energy=-422.744873046875 free_energy=-422.744873046875 stress="-0.005191908683627844 -1.9274000806035474e-05 0.0006356992525979877 -1.9274000806035474e-05 -0.009012906812131405 -0.0005490127950906754 0.0006356992525979877 -0.0005490127950906754 -0.009750261902809143" pbc="T T T"
Zn       4.36135312       2.30918413       5.35378437        0       0.00497892      -0.00776700      -0.01208496
H       10.09206594       8.08255093       7.56679232        1       0.14641564       0.00640713       0.04592941
H        2.55514558       6.16987304       3.14295992        2       0.08395570      -0.02336210      -0.06117357
H        2.69724742       8.85310719       7.08726189        3      -0.11367356       0.16921258      -0.11851670
H        9.96052967       5.38728608       3.62114981        4       0.15808436      -0.00986766       0.02630816
H        3.84130581       8.09709137       9.11139483        5      -0.12855737       0.01196016       0.06498531
H        8.81470004       6.14574875       1.58781148        6       0.00772700       0.03967607      -0.03225815
H        2.39126197       9.02530103       9.51993422        7      -0.04588360      -0.01956829       0.06565730
H       10.25791546       5.22565724       1.18710268        8       0.08310916      -0.04112612      -0.05319382
H        1.11430347       6.88096057       9.89209675        9       0.17764816      -0.02690569      -0.04273456
H       11.54098939       7.36418385       0.81209185       10      -0.16041231      -0.02849925       0.04962496
H        2.56474960       5.95593652       9.47348658       11       0.08031721      -0.13313356      -0.14808635
H       10.09152906       8.29235577       1.23430996       12       0.02932826      -0.17517579      -0.00666471
H        1.57856293       3.70663415       5.87276543       13      -0.07087896      -0.04840859      -0.00830895
H       11.07958653      10.54138624       4.83823893       14       0.01904591      -0.06141553      -0.02644995
H        9.65444937       5.83840755       6.78594761       15       0.19940890      -0.02055933      -0.05347527
H        2.99643134       8.40108257       3.92059726       16       0.00371243       0.01862722       0.02384356
H        4.83243637       7.22259951       6.91476240       17       0.05376107      -0.06751601      -0.04289623
H        7.81926643       7.01706418       3.79413817       18       0.10658138       0.21352464       0.07886031
H        5.50322799       5.04008728       5.96595613       19       0.31138542      -0.03312772      -0.03451122
H        7.15287005       9.20492170       4.74041563       20      -0.20427454      -0.01521636       0.00589313
H        5.64979697       2.10585267       2.60987725       21       0.23865312      -0.05411644      -0.03153240
H        6.99633837      12.13175762       8.09927792       22       0.20781671       0.03357658       0.14331448
H        4.97633956       2.01630486       0.21617691       23       0.01600038      -0.05177789      -0.02188646
H        7.68076389      12.23422315      10.49084034       24      -0.13384749       0.04136736       0.08803948
H        0.90901827       2.67183275       1.51260462       25      -0.24897364       0.01460465       0.00217159
H       11.75261844      11.57882186       9.19817548       26      -0.20277376       0.02256618      -0.09844442
H        1.74308138       2.71173188       3.83730411       27       0.08656577      -0.04118244      -0.11981983
H       10.91140604      11.52852987       6.87011057       28       0.02350188       0.03021095       0.08962115
C        2.27464706       8.00040101       7.62099081       29      -0.33701682      -0.16277212       0.17473269
C       10.37973364       6.25112711       3.08990169       30       0.08909838      -0.22698608      -0.31438142
C        2.73544781       8.07519573       9.08609743       31       0.16952868      -0.17583729       0.01398688
C        9.91623345       6.17654096       1.61839224       32      -0.04958926      -0.06134316       0.21394791
C        2.22202145       6.89038535       9.92720124       33      -0.35060647       0.37826580      -0.09167947
C       10.43372483       7.34379070       0.77764811       34       0.30606720       0.26013672       0.26237574
C        2.27234999       4.51422624       6.09389837       35       0.20180279      -0.00685304       0.04897590
C       10.38613016       9.72900374       4.61466544       36      -0.15984893       0.14393121      -0.02913703
C        1.81421896       5.71208169       6.62936724       37      -0.36918154       0.01419791       0.03312903
C       10.84351230       8.53235719       4.07592030       38       0.10121334      -0.11596696       0.01762047
C        2.71980649       6.72235402       6.96087788       39      -0.02657497      -0.02491160       0.01514244
C        9.93608711       7.51681368       3.75083138       40       0.09972240       0.36010450       0.03897166
C        4.07261780       6.47149652       6.69411278       41       0.00719538       0.15600082       0.08307745
C        8.58511279       7.77230121       4.01331018       42      -0.20708944      -0.46341321      -0.14435314
C        4.45979113       5.25273691       6.15966744       43      -0.23448151      -0.06650598       0.00600974
C        8.19812918       8.98571859       4.54530521       44       0.20130524       0.49833143       0.16282643
C        4.61614861       2.23370831       2.31379030       45      -0.27330744      -0.03138730       0.02892154
C        8.04611817      12.01079373       8.39466204       46      -0.34777468      -0.00058237      -0.34856322
C        4.22248438       2.17514459       0.98485439       47       0.03365079       0.10436001      -0.02399771
C        8.42923189      12.06404938       9.72481783       48       0.31762204      -0.06800658       0.05656134
C        2.86912465       2.33004234       0.64813000       49       0.05608241      -0.02618936       0.00854397
C        9.78500228      11.91144242      10.06416830       50      -0.24182127      -0.00682536      -0.34558165
C        1.96912881       2.54106404       1.69287206       51       0.20411593      -0.01290750       0.31671160
C       10.67826925      11.70372429       9.00898420       52       0.53054261      -0.02932076       0.27660960
C        2.43934159       2.57847690       3.00688536       53      -0.15055768       0.04086126      -0.00845066
C       10.22357847      11.66211826       7.70328641       54      -0.51755154       0.02211963      -0.45543128
N        3.57934220       4.27169625       5.87068644       55      -0.07400537      -0.07475543      -0.12484354
N        9.07982415       9.97404259       4.83856757       56      -0.05067271      -0.15483809       0.03876565
N        3.73651789       2.42398890       3.31681254       57      -0.01299937       0.00878092       0.12920356
N        8.91632567      11.81540466       7.38373389       58       0.37052792      -0.00831933       0.19723105
Cl       7.34773649       4.03955562       4.19781487       59      -0.23108467       0.42411819      -0.15775497
Cl       5.29870576      10.20376308       6.50093498       60       0.54392362      -0.28275311       0.52737641
O        6.40958797       3.07303993       4.82166813       61      -0.23133244      -0.56430525       0.55372858
O        6.24915796      11.17351619       5.88626075       62       0.10426734       0.51098377      -0.50298309
O        7.93429526       4.84707763       5.26186476       63       0.36283854       0.33684096       1.00054789
O        4.72437719       9.39911784       5.44725535       64      -0.50999445      -0.51724982      -1.27395248
O        8.37995201       3.27043203       3.52042564       65       0.75807261      -0.72963166      -0.61459696
O        4.27019878      10.96895074       7.18980746       66      -0.71436536       0.73085439       0.56607193
O        6.62868013       4.88133118       3.25945216       67      -0.59968108       0.47291142      -0.85048044
O        6.02889098       9.36560328       7.44580965       68       0.50323713      -0.39414534       0.74290586
69
Lattice="8.91794943 0.0 0.0 3.9314863879581217 9.62581115159954 0.0 -0.1951489409256924 4.618257037101233 10.707612652831946" Properties=species:S:1:pos:R:3:spacegroup_kinds:I:1:forces:R:3 spacegroup="P 1" unit_cell=conventional occupancy="_JSON {\"0\": {\"Zn\": 1}, \"1\": {\"H\": 1}, \"2\": {\"H\": 1}, \"3\": {\"H\": 1}, \"4\": {\"H\": 1}, \"5\": {\"H\": 1}, \"6\": {\"H\": 1}, \"7\": {\"H\": 1}, \"8\": {\"H\": 1}, \"9\": {\"H\": 1}, \"10\": {\"H\": 1}, \"11\": {\"H\": 1}, \"12\": {\"H\": 1}, \"13\": {\"H\": 1}, \"14\": {\"H\": 1}, \"15\": {\"H\": 1}, \"16\": {\"H\": 1}, \"17\": {\"H\": 1}, \"18\": {\"H\": 1}, \"19\": {\"H\": 1}, \"20\": {\"H\": 1}, \"21\": {\"H\": 1}, \"22\": {\"H\": 1}, \"23\": {\"H\": 1}, \"24\": {\"H\": 1}, \"25\": {\"H\": 1}, \"26\": {\"H\": 1}, \"27\": {\"H\": 1}, \"28\": {\"H\": 1}, \"29\": {\"C\": 1}, \"30\": {\"C\": 1}, \"31\": {\"C\": 1}, \"32\": {\"C\": 1}, \"33\": {\"C\": 1}, \"34\": {\"C\": 1}, \"35\": {\"C\": 1}, \"36\": {\"C\": 1}, \"37\": {\"C\": 1}, \"38\": {\"C\": 1}, \"39\": {\"C\": 1}, \"40\": {\"C\": 1}, \"41\": {\"C\": 1}, \"42\": {\"C\": 1}, \"43\": {\"C\": 1}, \"44\": {\"C\": 1}, \"45\": {\"C\": 1}, \"46\": {\"C\": 1}, \"47\": {\"C\": 1}, \"48\": {\"C\": 1}, \"49\": {\"C\": 1}, \"50\": {\"C\": 1}, \"51\": {\"C\": 1}, \"52\": {\"C\": 1}, \"53\": {\"C\": 1}, \"54\": {\"C\": 1}, \"55\": {\"N\": 1}, \"56\": {\"N\": 1}, \"57\": {\"N\": 1}, \"58\": {\"N\": 1}, \"59\": {\"Cl\": 1}, \"60\": {\"Cl\": 1}, \"61\": {\"O\": 1}, \"62\": {\"O\": 1}, \"63\": {\"O\": 1}, \"64\": {\"O\": 1}, \"65\": {\"O\": 1}, \"66\": {\"O\": 1}, \"67\": {\"O\": 1}, \"68\": {\"O\": 1}}" energy=-422.7291259765625 free_energy=-422.7291259765625 stress="-0.004491680767387152 0.00019145783153362572 0.0005424083210527897 0.00019145783153362572 -0.008709283545613289 -0.00026602152502164245 0.0005424083210527897 -0.00026602152502164245 -0.009711304679512978" pbc="T T T"
Zn       4.35922779       2.30980328       5.35201023        0       0.02821430      -0.02021440       0.03637512
H       10.09592765       8.08030385       7.56914527        1      -0.00267586       0.02184018       0.05238530
H        2.55563778       6.17042131       3.13937664        2       0.18059903      -0.03143058      -0.05687974
H        2.69440117       8.84964167       7.08837165        3      -0.09024146       0.23682949      -0.15559420
H        9.96267512       5.38539553       3.61649844        4       0.15536062      -0.07485244       0.06941653
H        3.83873687       8.09659542       9.11367280        5      -0.00124025       0.04452869       0.05400695
H        8.81377323       6.15024063       1.58715734        6      -0.05487230      -0.00257323      -0.01730382
H        2.38825646       9.02065515       9.52271148        7      -0.06832704       0.13901322       0.09179330
H       10.26178227       5.22608755       1.18741038        8       0.02526777      -0.02859003      -0.06127005
H        1.11815945       6.87943775       9.88771370        9       0.07066528      -0.00606141      -0.02112219
H       11.53982176       7.36784868       0.81017225       10      -0.20896797      -0.06232105       0.06981831
H        2.56668793       5.95394911       9.47189492       11       0.04266692       0.00593664      -0.09856549
H       10.09440383       8.29155041       1.22941855       12      -0.03719330      -0.09384766       0.04519859
H        1.58068339       3.70846593       5.86963057       13       0.01902710       0.04929097       0.04580296
H       11.08332141      10.54214059       4.83973170       14       0.02079177      -0.09127368      -0.03450178
H        9.65817512       5.84128585       6.78718843       15       0.07919952      -0.06370236      -0.06759642
H        3.00106911       8.40214080       3.91913472       16      -0.25312859       0.02505943       0.06221999
H        4.83425237       7.21925424       6.91059257       17       0.11432832       0.05088010      -0.00411042
H        7.81721318       7.01699935       3.79133148       18       0.16121307       0.30840552       0.10577650
H        5.50396578       5.04344628       5.97043879       19       0.42703766      -0.04123915      -0.06996237
H        7.14868973       9.20434554       4.73576186       20      -0.25221807      -0.01342653       0.04179442
H        5.65023132       2.10154015       2.61460208       21       0.31096879      -0.06126308      -0.02908871
H        6.99479105      12.13438872       8.10149400       22       0.21510293       0.01402513       0.16189739
H        4.97951890       2.01727988       0.21972042       23      -0.01825286      -0.04194240      -0.04698430
H        7.68077912      12.23871307      10.48730799       24      -0.02756293       0.01316085       0.04256085
H        0.90547813       2.66754604       1.51231105       25      -0.09099992       0.01285595       0.05441447
H       11.75694459      11.57781835       9.19413658       26      -0.42027676       0.06104130      -0.09051065
H        1.74438894       2.70938471       3.83971153       27       0.13956992      -0.05819565      -0.18723415
H       10.91474943      11.52475043       6.86854391       28      -0.04899610       0.05809934       0.20849127
C        2.27388102       7.99928732       7.62324626       29      -0.24917223      -0.14044297       0.14421593
C       10.38339860       6.24689038       3.08736479       30      -0.13080011      -0.07834470      -0.30368948
C        2.73744973       8.08008805       9.08489029       31       0.04156208      -0.42702025       0.04691271
C        9.91294554       6.17510904       1.61916919       32       0.11523225      -0.04044309       0.11889680
C        2.22192336       6.89339312       9.92605711       33      -0.16487549       0.22473572      -0.19663191
C       10.43054411       7.34299288       0.77733429       34       0.47731057       0.20776697       0.21991159
C        2.27673999       4.51818469       6.09859142       35       0.12122232      -0.46754283      -0.19139831
C       10.39095918       9.72786531       4.61727617       36      -0.57607317       0.25279832       0.03622165
C        1.81272231       5.70841684       6.62533576       37      -0.15923993       0.45121321       0.23271945
C       10.83992974       8.53100134       4.07800428       38       0.37724784      -0.27545625      -0.09484744
C        2.71788425       6.72541457       6.95996020       39       0.02064659      -0.21772364      -0.04679169
C        9.93202326       7.51215755       3.74750710       40       0.25617206       0.57091618       0.14974532
C        4.07189480       6.47587898       6.69176037       41      -0.09482558       0.00394325       0.02767277
C        8.58343679       7.77679933       4.01303374       42      -0.27879193      -0.82730180      -0.24487525
C        4.46290858       5.25662685       6.15674470       43      -0.44653481      -0.13961042       0.05960996
C        8.19332854       8.98254094       4.54983758       44       0.46399051       0.87068594       0.19176735
C        4.61961848       2.23257091       2.31817275       45      -0.60815436      -0.00370798      -0.27676740
C        8.04356884      12.00788411       8.39939516       46      -0.21885550       0.04551592      -0.60832667
C        4.21782028       2.17911411       0.98077925       47       0.52545792       0.04832134       0.35411221
C        8.43411547      12.06446964       9.72194406       48       0.10056773      -0.03939086       0.33221084
C        2.87358255       2.33199882       0.64404107       49      -0.37081081       0.05437841       0.23496488
C        9.78909826      11.91181319      10.06171298       50      -0.48432818       0.03995909      -0.09109578
C        1.97031632       2.54285071       1.69730639       51       0.18879062      -0.06956224      -0.03306057
C       10.67435600      11.70775063       9.01134089       52       1.14105034      -0.15864491       0.15676388
C        2.44242015       2.57556513       3.00703101       53      -0.41592935       0.10535672       0.10601559
C       10.22695301      11.66225845       7.70635492       54      -0.70681101       0.04517104      -0.68346912
N        3.58382516       4.26892421       5.87210158       55      -0.04581738       0.15615553      -0.06655826
N        9.07757617       9.97882959       4.84284322       56       0.07576385      -0.44924334      -0.04732011
N        3.73557168       2.42078811       3.31798072       57       0.26949906      -0.01769905       0.12127152
N        8.91744621      11.81713717       7.38757274       58       0.38251889      -0.06112308       0.15576279
Cl       7.34483564       4.03677636       4.19822230       59      -0.15784194       0.66525733      -0.12895469
Cl       5.30219518      10.20138613       6.49655272       60       0.38666981      -0.15674165       0.63252026
O        6.41379684       3.07560909       4.82503069       61      -0.31639495      -0.63474572       0.59655315
O        6.25041932      11.17165365       5.88252766       62       0.10628597       0.52320772      -0.50268066
O        7.93746128       4.85108401       5.26476168       63       0.27902320       0.24557409       0.84267753
O        4.72149994       9.39909223       5.44535517       64      -0.50099623      -0.53280210      -1.27380371
O        8.38033488       3.27447285       3.52016731       65       0.77567464      -0.74085331      -0.62810093
O        4.26566868      10.97292593       7.18487841       66      -0.54302239       0.61042655       0.47012615
O        6.62425727       4.88227936       3.25734350       67      -0.53606766       0.39867708      -0.75097048
O        6.03042538       9.36625607       7.44488401       68       0.48559636      -0.39169329       0.73746288
69
Lattice="8.91794943 0.0 0.0 3.9314863879581217 9.62581115159954 0.0 -0.1951489409256924 4.618257037101233 10.707612652831946" Properties=species:S:1:pos:R:3:spacegroup_kinds:I:1:forces:R:3 spacegroup="P 1" unit_cell=conventional occupancy="_JSON {\"0\": {\"Zn\": 1}, \"1\": {\"H\": 1}, \"2\": {\"H\": 1}, \"3\": {\"H\": 1}, \"4\": {\"H\": 1}, \"5\": {\"H\": 1}, \"6\": {\"H\": 1}, \"7\": {\"H\": 1}, \"8\": {\"H\": 1}, \"9\": {\"H\": 1}, \"10\": {\"H\": 1}, \"11\": {\"H\": 1}, \"12\": {\"H\": 1}, \"13\": {\"H\": 1}, \"14\": {\"H\": 1}, \"15\": {\"H\": 1}, \"16\": {\"H\": 1}, \"17\": {\"H\": 1}, \"18\": {\"H\": 1}, \"19\": {\"H\": 1}, \"20\": {\"H\": 1}, \"21\": {\"H\": 1}, \"22\": {\"H\": 1}, \"23\": {\"H\": 1}, \"24\": {\"H\": 1}, \"25\": {\"H\": 1}, \"26\": {\"H\": 1}, \"27\": {\"H\": 1}, \"28\": {\"H\": 1}, \"29\": {\"C\": 1}, \"30\": {\"C\": 1}, \"31\": {\"C\": 1}, \"32\": {\"C\": 1}, \"33\": {\"C\": 1}, \"34\": {\"C\": 1}, \"35\": {\"C\": 1}, \"36\": {\"C\": 1}, \"37\": {\"C\": 1}, \"38\": {\"C\": 1}, \"39\": {\"C\": 1}, \"40\": {\"C\": 1}, \"41\": {\"C\": 1}, \"42\": {\"C\": 1}, \"43\": {\"C\": 1}, \"44\": {\"C\": 1}, \"45\": {\"C\": 1}, \"46\": {\"C\": 1}, \"47\": {\"C\": 1}, \"48\": {\"C\": 1}, \"49\": {\"C\": 1}, \"50\": {\"C\": 1}, \"51\": {\"C\": 1}, \"52\": {\"C\": 1}, \"53\": {\"C\": 1}, \"54\": {\"C\": 1}, \"55\": {\"N\": 1}, \"56\": {\"N\": 1}, \"57\": {\"N\": 1}, \"58\": {\"N\": 1}, \"59\": {\"Cl\": 1}, \"60\": {\"Cl\": 1}, \"61\": {\"O\": 1}, \"62\": {\"O\": 1}, \"63\": {\"O\": 1}, \"64\": {\"O\": 1}, \"65\": {\"O\": 1}, \"66\": {\"O\": 1}, \"67\": {\"O\": 1}, \"68\": {\"O\": 1}}" energy=-422.70892333984375 free_energy=-422.70892333984375 stress="-0.005359544884413481 0.0008156329859048128 0.0004861974739469588 0.0008156329859048128 -0.008556511253118515 1.3366002349357586e-05 0.0004861974739469588 1.3366002349357586e-05 -0.00939557421952486" pbc="T T T"
Zn       4.35675824       2.30826264       5.34797285        0       0.03531566      -0.01731514       0.06265784
H       10.09137921       8.08496028       7.56700260        1       0.07771043       0.01457677       0.07367420
H        2.55736401       6.16978532       3.14403316        2       0.08011664      -0.01368503      -0.08933631
H        2.69843632       8.85295633       7.08334752        3      -0.18667504       0.10619646      -0.05323559
H        9.96442169       5.38213090       3.61341598        4       0.13985211      -0.07021853       0.09256943
H        3.84005717       8.09360400       9.11542779        5       0.02522558       0.07669471       0.02913850
H        8.81602319       6.14863797       1.58489985        6      -0.16195390      -0.01711944      -0.02078863
H        2.38610430       9.01889651       9.52566084        7      -0.04050402       0.16037959       0.08813478
H       10.26662194       5.22915799       1.18723843        8       0.03808786      -0.15096460      -0.09649562
H        1.11827177       6.87630059       9.88559869        9       0.12173268       0.00319203      -0.02500987
H       11.53860225       7.37057170       0.80560547       10      -0.07430935      -0.07985342       0.09172629
H        2.57003549       5.95667092       9.47631363       11       0.09351327      -0.14008400      -0.20030516
H       10.09716486       8.28738026       1.23197785       12      -0.06775278      -0.00903396       0.04966938
H        1.58345570       3.70863008       5.87265086       13       0.06396095       0.11001519       0.07788713
H       11.08590705      10.53814683       4.84003711       14      -0.07692658      -0.15612358      -0.03897597
H        9.66139045       5.84055194       6.79218877       15      -0.08854236      -0.03780466      -0.07475013
H        3.00235183       8.40348077       3.91954915       16      -0.15946065       0.00589994       0.02837916
H        4.83697783       7.22379422       6.90806467       17      -0.08385421      -0.14193398      -0.04816006
H        7.81497714       7.01879562       3.78730903       18       0.20477918       0.30198961       0.13200261
H        5.49953045       5.03986699       5.96546634       19       0.60413665      -0.03228682      -0.07489118
H        7.14595303       9.20076031       4.73901972       20      -0.17060688      -0.04534213       0.00933219
H        5.65015939       2.10603994       2.60975168       21       0.47388506      -0.09863432       0.08119528
H        6.99851587      12.13674396       8.10527776       22      -0.04219241       0.03936992       0.07086408
H        4.98172602       2.01337296       0.22136053       23      -0.13821390      -0.02488732       0.06450765
H        7.68509648      12.24362600      10.48441535       24      -0.16212001       0.03870859       0.19683260
H        0.91023044       2.66392923       1.50784269       25      -0.17877021       0.04426878       0.02684307
H       11.75687562      11.58107534       9.19008711       26      -0.32859272       0.05748207      -0.06716978
H        1.74390751       2.70938487       3.84147908       27       0.06452464      -0.03312483      -0.10540571
H       10.91335178      11.52049246       6.86823886       28      -0.02589961       0.07084913       0.18152861
C        2.27118123       8.00289870       7.62565179       29      -0.09284981      -0.13452500      -0.13347043
C       10.38221675       6.24700611       3.08735244       30      -0.03048427      -0.21488005      -0.32779267
C        2.74001711       8.08285144       9.08275050       31      -0.06665271      -0.51102495       0.12775633
C        9.91127673       6.17044623       1.61986863       32       0.33966532       0.24018186       0.04987171
C        2.22351887       6.89279470       9.92141114       33      -0.18162303       0.36667839       0.06202786
C       10.43411951       7.34518426       0.77435612       34       0.31698239      -0.02245596       0.41601390
C        2.28091214       4.52043940       6.10306372       35      -0.08878204      -0.59157866      -0.29679519
C       10.38802532       9.72349426       4.61853604       36      -0.37393594       0.30035692       0.00023236
C        1.80958762       5.71309394       6.62029794       37       0.09271300       0.33223918       0.27159846
C       10.84379942       8.52994444       4.07348601       38       0.01219766      -0.31270245      -0.01961328
C        2.71835426       6.72338930       6.95711561       39      -0.16956164       0.02343454       0.07449731
C        9.92894288       7.50783255       3.74617714       40       0.57430935       0.73592472       0.19469799
C        4.06985071       6.47247638       6.69006966       41       0.22489044       0.34085983       0.12218475
C        8.58673751       7.77238740       4.01633375       42      -0.52409542      -0.80707663      -0.28859216
C        4.46580389       5.25806388       6.15813718       43      -0.67279458      -0.34340221      -0.02872886
C        8.19276350       8.97881651       4.54931724       44       0.38070196       0.90114075       0.26511508
C        4.62195977       2.22924004       2.32277456       45      -0.94855547       0.09257314      -0.52832925
C        8.03952164      12.00749499       8.39749907       46       0.21272627       0.04439209      -0.28405643
C        4.21499152       2.17595623       0.98484850       47       0.93950373      -0.00977779       0.28527451
C        8.43467684      12.06629967       9.72461250       48       0.25323856      -0.12907618       0.01124042
C        2.87741648       2.33196570       0.64601987       49      -0.59183985       0.08530714       0.00989254
C        9.79159621      11.90771147      10.06468029       50      -0.60521793       0.16286305      -0.33024764
C        1.97309606       2.54740068       1.69384294       51       0.18590419      -0.09832621       0.25754341
C       10.67703077      11.71219195       9.01008943       52       1.01264071      -0.20361623       0.19473395
C        2.43980039       2.57918898       3.01138506       53      -0.40613857       0.08620125      -0.32558453
C       10.22851944      11.66318426       7.70613159       54      -0.83890319       0.06021843      -0.64514017
N        3.58431391       4.26746946       5.87313317       55       0.05098213       0.27162859      -0.01050136
N        9.07493171       9.97486245       4.84498691       56       0.10106906      -0.44361836      -0.06926368
N        3.73154519       2.42538941       3.31417136       57       0.46516591      -0.07684734       0.38558507
N        8.91633332      11.81721531       7.38882362       58       0.40623695      -0.08857675       0.10352850
Cl       7.34161484       4.03662859       4.19555886       59       0.06529945       0.57987690       0.10301486
Cl       5.30532349      10.19930216       6.49428655       60       0.19782698      -0.07198435       0.63840860
O        6.41503364       3.07223504       4.82062695       61      -0.35310641      -0.65498149       0.63080871
O        6.24724839      11.17559388       5.88382097       62       0.13584578       0.52068305      -0.51715338
O        7.93550294       4.85212677       5.26852517       63       0.23679024       0.14769846       0.73558283
O        4.72004187       9.39919154       5.44144492       64      -0.48290840      -0.48111570      -1.22187424
O        8.37673812       3.27107997       3.51702247       65       0.77721131      -0.70712817      -0.59787077
O        4.26709500      10.97535640       7.18911295       66      -0.44654244       0.51229507       0.38496786
O        6.62669233       4.87809910       3.26207276       67      -0.68257999       0.56853402      -0.93855667
O        6.02822271       9.36377456       7.44158435       68       0.53820395      -0.43160349       0.77657497
69