72
Lattice="5.02201423 0.0 0.0 -0.20316400901020476 12.088390078537785 0.0 -0.8604294463198953 -5.994964896493372 10.84990669176921" Properties=species:S:1:pos:R:3:spacegroup_kinds:I:1:forces:R:3 spacegroup="P 1" unit_cell=conventional occupancy="_JSON {\"0\": {\"Fe\": 1}, \"1\": {\"Fe\": 1}, \"2\": {\"Fe\": 1}, \"3\": {\"Fe\": 1}, \"4\": {\"H\": 1}, \"5\": {\"H\": 1}, \"6\": {\"H\": 1}, \"7\": {\"H\": 1}, \"8\": {\"H\": 1}, \"9\": {\"H\": 1}, \"10\": {\"H\": 1}, \"11\": {\"H\": 1}, \"12\": {\"H\": 1}, \"13\": {\"H\": 1}, \"14\": {\"H\": 1}, \"15\": {\"H\": 1}, \"16\": {\"H\": 1}, \"17\": {\"H\": 1}, \"18\": {\"H\": 1}, \"19\": {\"H\": 1}, \"20\": {\"H\": 1}, \"21\": {\"H\": 1}, \"22\": {\"H\": 1}, \"23\": {\"H\": 1}, \"24\": {\"H\": 1}, \"25\": {\"H\": 1}, \"26\": {\"H\": 1}, \"27\": {\"H\": 1}, \"28\": {\"H\": 1}, \"29\": {\"H\": 1}, \"30\": {\"H\": 1}, \"31\": {\"H\": 1}, \"32\": {\"H\": 1}, \"33\": {\"H\": 1}, \"34\": {\"C\": 1}, \"35\": {\"C\": 1}, \"36\": {\"C\": 1}, \"37\": {\"C\": 1}, \"38\": {\"C\": 1}, \"39\": {\"C\": 1}, \"40\": {\"C\": 1}, \"41\": {\"C\": 1}, \"42\": {\"C\": 1}, \"43\": {\"C\": 1}, \"44\": {\"C\": 1}, \"45\": {\"C\": 1}, \"46\": {\"C\": 1}, \"47\": {\"C\": 1}, \"48\": {\"C\": 1}, \"49\": {\"C\": 1}, \"50\": {\"C\": 1}, \"51\": {\"C\": 1}, \"52\": {\"C\": 1}, \"53\": {\"C\": 1}, \"54\": {\"C\": 1}, \"55\": {\"C\": 1}, \"56\": {\"C\": 1}, \"57\": {\"C\": 1}, \"58\": {\"O\": 1}, \"59\": {\"O\": 1}, \"60\": {\"O\": 1}, \"61\": {\"O\": 1}, \"62\": {\"O\": 1}, \"63\": {\"O\": 1}, \"64\": {\"O\": 1}, \"65\": {\"O\": 1}, \"66\": {\"O\": 1}, \"67\": {\"O\": 1}, \"68\": {\"O\": 1}, \"69\": {\"O\": 1}, \"70\": {\"O\": 1}, \"71\": {\"O\": 1}}" energy=-456.5033874511719 free_energy=-456.5033874511719 stress="-0.014811922796070576 -0.003960446920245886 -0.002585898619145155 -0.003960446920245886 -0.003478515660390258 -0.002060400787740946 -0.002585898619145155 -0.002060400787740946 -0.0034436837304383516" pbc="T T T"
Fe       1.95509915      -2.28496348       4.13721390        0      -0.07055604       0.46762228      -0.94660103
Fe       2.26688014      -3.67121711       6.83464479        1      -0.46488708      -0.26591420      -0.09878179
Fe       4.32587490       8.02305126       4.28093942        2       0.11623874      -0.17134349      -0.43772334
Fe      -0.36287577      -1.99355168       6.55405262        3      -0.01081490       0.84232831       0.66202068
H        1.01640131      -0.52333989       1.65724667        4       0.06347796       0.09162767       0.06229628
H        2.92966177       6.65555250       9.24209889        5      -0.48968083       0.01412590      -0.11107665
H        3.27334559       0.51420086       0.90398792        6      -0.84895420       0.05308517      -0.14860439
H        0.67047540       5.60601179       9.99693130        7       0.19776249      -0.00360575      -0.18219092
H        4.35041959       1.24607471       2.09886812        8      -0.12268770      -0.04562318       0.03422002
H       -0.40630296       4.89043513       8.80479131        9       0.03078876      -0.25229245      -0.68358946
H        0.36313694       9.68275132       0.15644299       10       0.01512151       0.04002539       0.01515853
H        3.62382852      -3.54421819      10.74834042       11       0.15427098      -0.51717925       0.00559298
H        2.92591002       4.39499346      10.55733528       12       0.75606346       0.00455955       0.15365720
H        0.99300787       1.74298418       0.34118907       13       0.62508738      -0.05049236       0.17495134
H        3.29565862       6.09964427       1.82547475       14       0.37857556      -0.12796524      -0.03962024
H        0.68460017       0.03209384       9.05756318       15       0.03390995       0.01635308       0.04807917
H        1.38660591       4.48232071       1.67879348       16       0.15924703      -0.08792306       0.02605404
H        2.58904551       1.64753625       9.21307455       17      -0.00728374      -0.15001699       0.09435635
H        0.50857299       5.57055100       0.61082771       18       0.89395046      -0.30233938       0.18864723
H        3.44181064       0.54803839      10.28821843       19       0.60824692      -0.03314270       0.22649257
H        1.60562598       7.87921581       0.03219794       20      -0.57428586       0.26560879      -0.26239505
H        2.34888059      -1.77851626      10.82348796       21       0.33969155      -0.19525643       0.22967017
H        3.16782044       8.29189197       0.75189515       22      -0.14120263       0.10489716       0.16584662
H        0.80260461      -2.19849444      10.10434479       23       0.03610264       0.32053590       0.12145549
H        0.12714464       2.35456378       5.02206837       24       0.45725775      -0.04691292       0.08174197
H        3.79820135       3.75677520       5.88928022       25      -0.56121862       0.25733802      -0.08099522
H        3.07729020       1.80419935       4.34754683       26      -0.33191103       0.23646475      -0.09393653
H        0.85236728       4.32275967       6.58319013       27      -0.53345984       0.50509620      -0.07851149
H        1.80476407       2.09642027       3.16643760       28      -0.19917993      -0.08844912       0.08397370
H        2.13113363       4.06670211       7.74388605       29       0.10133645       0.10950616       0.16033500
H        0.76647086       1.99223550       7.32831775       30      -0.57003647      -0.31847242       0.60251111
H        3.17496641       4.17164816       3.56135000       31      -0.55040687      -0.13867734       0.41707507
H        2.47584725       1.73465942       6.88566664       32      -0.58002830       0.34393141       0.07737064
H        1.48249544       4.39677840       4.02648290       33      -1.03092051       0.69448400      -0.34761697
C        4.12944398      10.52566717       2.35084225       34       0.30863899      -0.86174959       0.76813143
C       -0.15255480      -4.44350465       8.51063835       35      -0.97605306       0.72985077      -0.20486566
C       -0.03094181      -0.66516236       1.33403782       36       0.33109221      -0.34045616      -0.21047856
C        3.96085686       6.80544072       9.56381196       37       0.47117361      -0.09382498      -0.19198354
C        4.30584696       0.68529464       1.15277444       38       0.91245663       0.00442873      -0.00635278
C       -0.38334270       5.44986995       9.72584017       39       0.23344594       0.01386301       1.12489200
C        3.99728901       4.63742168      10.84719211       40      -1.29166734       0.05127411      -0.23841381
C        5.00640121       1.47158126       0.04716814       41      -0.96597373       0.90700793      -0.02595203
C        1.65165943       7.15006105       2.59481595       42      -0.98591095      -0.39757270      -0.13460006
C        2.34311489      -1.04450524       8.29772129       43      -0.10404419       0.03134019      -0.32989207
C        2.31424103       6.41447002       1.44836658       44       0.39412507       0.66442508       0.18138577
C        1.66823071      -0.31241540       9.44107371       45      -0.39459285       0.13205865      -0.38361034
C        1.55842832       5.23518275       0.89842152       46      -1.70927882       0.01565002      -0.50575930
C        2.45605154       0.88325102       9.99811627       47      -0.95679533       0.05917650      -0.03660354
C        2.55797009       7.47572936       0.35060927       48       1.13794172      -0.44796062      -0.32521114
C        1.38317843      -1.35767808      10.52956907       49      -0.04041114      -0.27619669       0.17617320
C        0.84738923       0.36875652       5.17089854       50       1.23635578      -0.82730800       0.02093055
C        3.05637552       5.76805120       5.68090440       51      -0.48819405       1.02063096       0.75235200
C        1.13346727       1.88558071       5.22400750       52      -1.93123865      -0.38633132      -0.14865521
C        2.80485312       4.26088275       5.69507771       53       0.92767936       0.10701320       0.03871459
C        2.11610196       2.35904347       4.18723908       54       1.18918991      -0.13154122      -0.27651489
C        1.78777375       3.80325787       6.74127781       55       0.24764991      -0.41687015      -0.10304070
C        1.52744064       2.30256024       6.64367501       56       1.68364024      -0.25120834      -0.36249959
C        2.37115152       3.86646846       4.28292267       57       1.27701044      -0.81228006      -0.36879808
O        2.87052657      10.54079102       2.50205102       58       0.24033111       0.35334134      -0.17519730
O        1.09207677      -4.50995201       8.41170120       59       0.07802662      -0.12243994       0.17503038
O       -0.09159864       9.68505861       2.96032159       60      -0.30171043       0.70677513      -0.33461422
O        4.09223855      -3.60799516       7.85010943       61       0.69684482      -0.69262272       0.38985467
O        0.40677185       7.01279575       2.77535131       62      -0.07899639      -0.36635178      -0.14557661
O        3.56780810      -0.92640246       8.09137424       63       0.98593044       0.53886926       0.30495873
O        2.37784140       7.94645036       3.27201206       64       0.62671018       0.37752834       0.31480756
O        1.61236589      -1.82309996       7.57868254       65      -0.72013098      -0.18520653       0.07078369
O       -0.09684937      -0.11562774       5.86939109       66      -0.35195330       1.11549044      -0.04528595
O        4.07967086       6.20824399       5.02880428       67      -0.69983655      -0.97692764       0.49144483
O        1.66911074      -0.35527797       4.49389029       68      -0.22925779       1.02310669      -0.09757553
O        2.20615587       6.49960952       6.33280332       69       1.04091096      -1.33816957      -0.75294447
O        3.36778229      -2.73151524       5.30612475       70       0.02254700       0.08736208       0.19763254
O        0.60860174       8.97038366       5.41495573       71       0.30473053      -0.58615923       0.27747059
72
Lattice="5.02201423 0.0 0.0 -0.20316400901020476 12.088390078537785 0.0 -0.8604294463198953 -5.994964896493372 10.84990669176921" Properties=species:S:1:pos:R:3:spacegroup_kinds:I:1:forces:R:3 spacegroup="P 1" unit_cell=conventional occupancy="_JSON {\"0\": {\"Fe\": 1}, \"1\": {\"Fe\": 1}, \"2\": {\"Fe\": 1}, \"3\": {\"Fe\": 1}, \"4\": {\"H\": 1}, \"5\": {\"H\": 1}, \"6\": {\"H\": 1}, \"7\": {\"H\": 1}, \"8\": {\"H\": 1}, \"9\": {\"H\": 1}, \"10\": {\"H\": 1}, \"11\": {\"H\": 1}, \"12\": {\"H\": 1}, \"13\": {\"H\": 1}, \"14\": {\"H\": 1}, \"15\": {\"H\": 1}, \"16\": {\"H\": 1}, \"17\": {\"H\": 1}, \"18\": {\"H\": 1}, \"19\": {\"H\": 1}, \"20\": {\"H\": 1}, \"21\": {\"H\": 1}, \"22\": {\"H\": 1}, \"23\": {\"H\": 1}, \"24\": {\"H\": 1}, \"25\": {\"H\": 1}, \"26\": {\"H\": 1}, \"27\": {\"H\": 1}, \"28\": {\"H\": 1}, \"29\": {\"H\": 1}, \"30\": {\"H\": 1}, \"31\": {\"H\": 1}, \"32\": {\"H\": 1}, \"33\": {\"H\": 1}, \"34\": {\"C\": 1}, \"35\": {\"C\": 1}, \"36\": {\"C\": 1}, \"37\": {\"C\": 1}, \"38\": {\"C\": 1}, \"39\": {\"C\": 1}, \"40\": {\"C\": 1}, \"41\": {\"C\": 1}, \"42\": {\"C\": 1}, \"43\": {\"C\": 1}, \"44\": {\"C\": 1}, \"45\": {\"C\": 1}, \"46\": {\"C\": 1}, \"47\": {\"C\": 1}, \"48\": {\"C\": 1}, \"49\": {\"C\": 1}, \"50\": {\"C\": 1}, \"51\": {\"C\": 1}, \"52\": {\"C\": 1}, \"53\": {\"C\": 1}, \"54\": {\"C\": 1}, \"55\": {\"C\": 1}, \"56\": {\"C\": 1}, \"57\": {\"C\": 1}, \"58\": {\"O\": 1}, \"59\": {\"O\": 1}, \"60\": {\"O\": 1}, \"61\": {\"O\": 1}, \"62\": {\"O\": 1}, \"63\": {\"O\": 1}, \"64\": {\"O\": 1}, \"65\": {\"O\": 1}, \"66\": {\"O\": 1}, \"67\": {\"O\": 1}, \"68\": {\"O\": 1}, \"69\": {\"O\": 1}, \"70\": {\"O\": 1}, \"71\": {\"O\": 1}}" energy=-455.62890625 free_energy=-455.62890625 stress="-0.014585931785404682 -0.0061571113765239716 -0.0049545299261808395 -0.0061571113765239716 -0.005361087154597044 -0.004975198768079281 -0.0049545299261808395 -0.004975198768079281 -0.004364914260804653" pbc="T T T"
Fe       1.97367502      -2.25774712       4.13217275        0      -0.50306469       0.34397629      -0.64882445
Fe       2.28120465      -3.66129434       6.86174694        1      -0.63488948      -0.27827898      -0.29095256
Fe       4.29709618       8.05038326       4.28061776        2       0.28986517      -0.36377865      -0.39424431
Fe      -0.34942601      -1.97799458       6.52470214        3      -0.01364817       0.62615728       0.91710234
H        0.99807237      -0.50302453       1.67993185        4      -0.09282737      -0.04239786      -0.12352195
H        2.90448614       6.67936677       9.26657581        5      -0.48688245       0.01471134      -0.14798826
H        3.26910562       0.51576780       0.93209495        6      -0.59960943       0.06106369      -0.24620731
H        0.66835135       5.62462019      10.02274189        7       0.10334064      -0.10816781      -0.20316543
H        4.32758315       1.25072197       2.11492140        8       0.03202189      -0.32791144      -0.27506989
H       -0.42994210       4.89949895       8.82666525        9       0.18276718      -0.29154736      -0.94248199
H        0.36730097       9.70340228       0.18431747       10      -0.37845397       0.33270708      -0.19860163
H        3.60019508      -3.56778601      10.77509218       11       0.01782527       0.14646086       0.03404533
H        2.90735725       4.40722443      10.55818565       12       0.55136681      -0.06351342      -0.04649925
H        1.00808078       1.74576572       0.36734902       13       0.29212949       0.00613685      -0.04276741
H        3.26829196       6.10707164       1.85454278       14       0.44806826      -0.19724548      -0.04501719
H        0.70801813       0.05597784       9.08704432       15      -0.22170299       0.07005827      -0.14028169
H        1.35991964       4.45791106       1.70287033       16       0.37480235       0.54058719      -0.56918901
H        2.60828681       1.67249568       9.22637500       17      -0.29073414      -0.39380118       0.52088118
H        0.48376636       5.59319691       0.63512214       18       1.32054293      -0.55581498       0.21846910
H        3.45932852       0.54912053      10.29907068       19      -0.38382763       0.34720212       0.04097281
H        1.58345775       7.90568827       0.05597735       20       0.74808645      -0.33955127       0.13375267
H        2.35487263      -1.77653608      10.81766901       21      -0.32390055       0.12643221       0.23135915
H        3.16704644       8.26762242       0.74922270       22       0.47003996       0.83068645       0.65329796
H        0.82136529      -2.17140028      10.10901116       23      -0.43104517      -0.06053963      -0.09325945
H        0.10666047       2.37939972       5.04323431       24       0.66086704      -0.23872669       0.03964759
H        3.80086962       3.75919492       5.91876381       25      -0.92148268       0.24297722      -0.27374089
H        3.09127722       1.83212239       4.35080149       26      -0.70208400       0.40970546       0.05989547
H        0.82946309       4.32899013       6.60796666       27      -0.41923684       0.59400809      -0.12111066
H        1.82226900       2.12383032       3.17833221       28      -0.29110608      -0.09307708       0.33022535
H        2.11511074       4.07085113       7.75427623       29       0.24292722       0.11551492       0.43037972
H        0.76695211       2.01514068       7.32762506       30      -0.64551377      -0.32654253       0.55246300
H        3.19831398       4.19616219       3.58472865       31      -0.97694522      -0.24834636       0.56200272
H        2.45007634       1.74863669       6.89212558       32      -0.59418374       0.44396925      -0.06824359
H        1.49020961       4.41094453       4.03380651       33      -1.85546660       1.24903417      -0.60294658
C        4.10822956      10.52201170       2.34600749       34       0.42590049      -0.74771619       0.94989449
C       -0.13932384      -4.42367008       8.49843266       35      -2.58333635       0.08491814       0.82285392
C       -0.05293550      -0.63844461       1.33915774       36       1.17537117      -2.14233470      -0.12972400
C        3.93300717       6.83441912       9.58461704       37       1.85279262      -0.82260096      -0.69036150
C        4.31770847       0.65943078       1.16620336       38      -0.14672691       2.04582500       0.01791489
C       -0.38186031       5.44579617       9.74705939       39      -0.29576471       1.24979579       0.55961072
C        3.97125495       4.65135006      10.82066103       40      -0.58487767      -0.42689982       1.42657447
C        5.01253711       1.48936521       0.05487188       41      -0.87731194       0.02831951       0.69120502
C        1.67579655       7.16906785       2.61030727       42      -2.40104151      -0.98812819      -0.37479267
C        2.35914438      -1.02813166       8.27696924       43      -2.73389602      -0.01453065       1.01147842
C        2.29169976       6.43385789       1.46839863       44       1.37143207      -0.13659339       0.10597341
C        1.68489772      -0.29254334       9.46318707       45      -0.82346797      -0.14268588      -0.92225397
C        1.55485100       5.23706280       0.90907161       46      -2.64387417       0.08797196       0.36516869
C        2.43236048       0.90468306      10.02662963       47       1.20423555      -0.48747087      -0.59517610
C        2.58041748       7.45911872       0.37979605       48      -1.37617135       0.35479814      -1.07948995
C        1.36138905      -1.33352119      10.54340886       49       1.55596149      -0.48719454       0.12150365
C        0.82580426       0.39358358       5.19082392       50       2.38870049      -2.26398277      -0.99028921
C        3.07414877       5.79006305       5.69753391       51       0.11247903      -0.18505684      -0.11992613
C        1.11733289       1.88915615       5.24532570       52      -2.01962042       0.20551801      -1.12607098
C        2.79121647       4.24835342       5.69730997       53       1.50611699       1.28430057       0.61739886
C        2.10781001       2.38534999       4.21642682       54       1.38596237      -0.57562131      -1.04059744
C        1.77421479       3.82062299       6.75934835       55       0.08692512      -0.65222895      -0.89253831
C        1.50698377       2.32498343       6.61785808       56       1.91755366      -0.45997953       1.24519992
C        2.35539875       3.89503488       4.28983524       57       2.52393866      -1.58429861      -0.11712997
O        2.84672952      10.54867801       2.48831992       58       0.50898707       0.22304371      -0.24605498
O        1.08915635      -4.48477586       8.40937754       59       0.98232007      -0.19498488       0.06144160
O       -0.11623445       9.67654652       2.98424514       60      -0.64324772       1.08479428      -0.81275034
O        4.06838227      -3.62828057       7.86216880       61       0.82549345      -0.01796289      -0.16164696
O        0.43235119       6.98837236       2.78200559       62      -0.12177216      -0.08028777       0.06906936
O        3.54356302      -0.91422056       8.09196016       63       4.01398087       0.90345013      -0.25214225
O        2.36233836       7.97157499       3.29611206       64       1.33341169       0.84707296       0.66404659
O        1.63637932      -1.82418465       7.57325413       65      -1.24833047      -0.17129454      -0.03996393
O       -0.12147373      -0.11090017       5.85703852       66      -0.29151943       1.37073350      -0.09802185
O        4.10345541       6.21208223       5.00154642       67      -1.45040631      -0.90088022       1.08537221
O        1.69003856      -0.37094770       4.49944977       68      -1.45910072       2.32580876       0.93851781
O        2.22767238       6.48161036       6.35503110       69       0.84525234      -0.56640017      -0.45907903
O        3.34758034      -2.71263302       5.33336604       70       0.02728599      -0.02285755       0.05597068
O        0.58091731       8.95954262       5.42419354       71       0.68831879      -0.59650815       0.08843386
72
Lattice="5.02201423 0.0 0.0 -0.20316400901020476 12.088390078537785 0.0 -0.8604294463198953 -5.994964896493372 10.84990669176921" Properties=species:S:1:pos:R:3:spacegroup_kinds:I:1:forces:R:3 spacegroup="P 1" unit_cell=conventional occupancy="_JSON {\"0\": {\"Fe\": 1}, \"1\": {\"Fe\": 1}, \"2\": {\"Fe\": 1}, \"3\": {\"Fe\": 1}, \"4\": {\"H\": 1}, \"5\": {\"H\": 1}, \"6\": {\"H\": 1}, \"7\": {\"H\": 1}, \"8\": {\"H\": 1}, \"9\": {\"H\": 1}, \"10\": {\"H\": 1}, \"11\": {\"H\": 1}, \"12\": {\"H\": 1}, \"13\": {\"H\": 1}, \"14\": {\"H\": 1}, \"15\": {\"H\": 1}, \"16\": {\"H\": 1}, \"17\": {\"H\": 1}, \"18\": {\"H\": 1}, \"19\": {\"H\": 1}, \"20\": {\"H\": 1}, \"21\": {\"H\": 1}, \"22\": {\"H\": 1}, \"23\": {\"H\": 1}, \"24\": {\"H\": 1}, \"25\": {\"H\": 1}, \"26\": {\"H\": 1}, \"27\": {\"H\": 1}, \"28\": {\"H\": 1}, \"29\": {\"H\": 1}, \"30\": {\"H\": 1}, \"31\": {\"H\": 1}, \"32\": {\"H\": 1}, \"33\": {\"H\": 1}, \"34\": {\"C\": 1}, \"35\": {\"C\": 1}, \"36\": {\"C\": 1}, \"37\": {\"C\": 1}, \"38\": {\"C\": 1}, \"39\": {\"C\": 1}, \"40\": {\"C\": 1}, \"41\": {\"C\": 1}, \"42\": {\"C\": 1}, \"43\": {\"C\": 1}, \"44\": {\"C\": 1}, \"45\": {\"C\": 1}, \"46\": {\"C\": 1}, \"47\": {\"C\": 1}, \"48\": {\"C\": 1}, \"49\": {\"C\": 1}, \"50\": {\"C\": 1}, \"51\": {\"C\": 1}, \"52\": {\"C\": 1}, \"53\": {\"C\": 1}, \"54\": {\"C\": 1}, \"55\": {\"C\": 1}, \"56\": {\"C\": 1}, \"57\": {\"C\": 1}, \"58\": {\"O\": 1}, \"59\": {\"O\": 1}, \"60\": {\"O\": 1}, \"61\": {\"O\": 1}, \"62\": {\"O\": 1}, \"63\": {\"O\": 1}, \"64\": {\"O\": 1}, \"65\": {\"O\": 1}, \"66\": {\"O\": 1}, \"67\": {\"O\": 1}, \"68\": {\"O\": 1}, \"69\": {\"O\": 1}, \"70\": {\"O\": 1}, \"71\": {\"O\": 1}}" energy=-455.16571044921875 free_energy=-455.16571044921875 stress="-0.006542496383190155 -0.009455103427171707 -0.005425725132226944 -0.009455103427171707 -0.01360858604311943 -0.0007846972439438105 -0.005425725132226944 -0.0007846972439438105 -0.010272673331201077" pbc="T T T"
Fe       1.98170282      -2.28038769       4.14211246        0      -0.66298342       0.65080810      -0.70129383
Fe       2.26410451      -3.65281720       6.87059644        1      -0.59188843      -0.49308813      -0.20836760
Fe       4.29586363       8.03831496       4.29315189        2       0.58800083      -0.22474733      -0.47846675
Fe      -0.37653331      -1.97032993       6.49836413        3       0.30260342       0.89665550       1.08101475
H        0.97842265      -0.50103053       1.70453957        4      -0.15477611       0.01348317      -0.27824596
H        2.87623545       6.69609375       9.29358078        5      -0.04309096       0.07959376      -0.10741866
H        3.26908109       0.54172745       0.91612176        6      -0.06513031       0.13923755      -0.10791985
H        0.63918180       5.60361751      10.04478751        7       0.63406157       0.12970756      -0.13114299
H        4.32544243       1.23354608       2.11685466        8       0.12080074      -0.01047840      -0.19905666
H       -0.44881623       4.89976660       8.82770521        9       0.19905433       0.16192955      -0.21667925
H        0.35777433       9.70778685       0.16200970       10      -0.61866325       0.72580248      -0.09527567
H        3.62467928      -3.57233767      10.80216578       11      -0.31796163       0.51077563       0.02470699
H        2.87771350       4.43541261      10.53393525       12       1.04737055       0.05800631       0.23372304
H        1.01764779       1.74167752       0.38628958       13      -0.41257474      -0.23326924      -0.26871625
H        3.24990692       6.10795205       1.85402172       14       0.48171750      -0.12855116      -0.22018944
H        0.70918580       0.07273673       9.06232929       15       0.23989840      -0.29423219       0.15620957
H        1.38545767       4.48736119       1.67639870       16       0.26946035       0.00336452       0.11318231
H        2.62016490       1.68226882       9.24559375       17      -0.52872348      -0.41181570       0.45950428
H        0.48899299       5.60553859       0.64733734       18       1.33190727      -0.60684216       0.16252807
H        3.43141387       0.55386931      10.28703417       19      -0.04983002       0.26201901       0.29037511
H        1.58129941       7.88999979       0.06944887       20       0.33588380      -0.06991349       0.01258467
H        2.32731090      -1.75179559      10.83622683       21       0.32822320      -0.23344798       0.30171624
H        3.17019332       8.24465444       0.77401342       22       0.16726431       0.61534774       0.46687195
H        0.81497909      -2.15674508      10.10808405       23      -0.39809036      -0.07337955      -0.00448140
H        0.08282893       2.36867816       5.04589196       24       0.62544298      -0.13453618      -0.00643256
H        3.79986123       3.77223355       5.89235923       25      -1.21647835       0.41527730      -0.07911043
H        3.08978422       1.83419593       4.32774484       26      -1.07637286       0.50847173       0.11391939
H        0.81891383       4.34913676       6.63677066       27       0.03031930       0.29414597      -0.02595605
H        1.82091959       2.15020862       3.19792829       28      -0.76179898      -0.43696207      -0.88494754
H        2.11118235       4.09578463       7.77522806       29       0.16994590      -0.15946081       0.28264245
H        0.75924953       2.03577052       7.31450771       30      -1.10345364      -0.60407740       1.06721270
H        3.18507593       4.20493960       3.61380163       31      -1.15667367      -0.29833478       0.62332189
H        2.45434984       1.77844512       6.86717008       32      -0.99140286       0.47376209      -0.01113571
H        1.47123067       4.43652457       4.06275212       33      -1.71883488       1.03603661      -0.63053095
C        4.08540596      10.54497221       2.37096071       34       1.17035890      -0.65091503       0.41511881
C       -0.15567371      -4.41941239       8.49130306       35      -0.71310282      -0.38939473       1.51367927
C       -0.07160600      -0.60957075       1.33257916       36       1.50858903      -3.06782103       0.53582460
C        3.92285930       6.86276972       9.59952222       37       1.30796719      -1.48849821      -0.99840558
C        4.34168290       0.68771006       1.14866051       38      -2.13741183       1.12573493       1.01104307
C       -0.39845388       5.46157003       9.76919918       39      -0.59285647       1.02853143      -0.74485862
C        3.95878757       4.68090952      10.82964534       40      -1.20981812      -1.27316713       1.32431340
C        4.98871541       1.47206756       0.07968494       41       1.30778456       1.44198954      -0.09713869
C        1.69313757       7.15869242       2.62197389       42      -4.50551605      -1.18237090      -0.77517700
C        2.35692922      -1.04353522       8.27866380       43      -1.01126111       0.14465842       1.12063682
C        2.27938782       6.44458095       1.44124506       44       1.79114389      -0.52459335       1.91212511
C        1.68843545      -0.31076742       9.47150997       45      -1.33230412       0.91745698      -1.73405170
C        1.56930686       5.25605499       0.91510765       46      -3.24665833      -0.01457950      -0.70700061
C        2.41202898       0.90853681      10.03193200       47       1.24724078      -0.62061495      -0.65234405
C        2.55650666       7.44464205       0.39608419       48      -0.33538434       1.28759158      -1.79138947
C        1.36260267      -1.32160573      10.54048501       49       0.78099942      -0.51596510       0.39390895
C        0.84815813       0.40549274       5.19895387       50       1.09798717      -2.51588917      -0.47955698
C        3.06551550       5.79255937       5.67284589       51      -0.55404091       0.31690681       1.10725689
C        1.10476116       1.91413436       5.25327199       52      -1.93275607      -0.49959737      -1.52328372
C        2.76798445       4.27417474       5.72465665       53       1.93195212       0.24828246      -0.23226747
C        2.08296869       2.38117529       4.20475423       54       2.15150476       0.15402457       0.52014583
C        1.76844784       3.80563911       6.78331099       55      -0.39980268       1.10561919      -0.76451594
C        1.48016157       2.35250508       6.61800857       56       3.03965092      -1.05934715       0.94786298
C        2.32787894       3.89262625       4.31150486       57       2.65189123      -1.14624333      -0.31395948
O        2.82691049      10.57626318       2.50447640       58       0.52724195       0.05115058      -0.02912014
O        1.09545389      -4.50013844       8.43428556       59      -0.07946843      -0.07861523       0.02393111
O       -0.10551038       9.69899521       2.99067590       60      -1.29645526       1.32788038      -0.93145442
O        4.09774211      -3.63398142       7.83971265       61       0.07680161       0.44365534      -0.61971831
O        0.41886516       6.98335913       2.80491729       62       1.17792416      -0.19661266      -0.21733873
O        3.57191515      -0.94176214       8.12060575       63       2.02586269       0.58641469      -0.18894285
O        2.33650296       7.98824568       3.28940017       64       2.04358578       1.03917277       0.92710042
O        1.62667934      -1.83877373       7.58728119       65      -0.89289165       0.05179256      -0.04516140
O       -0.12471480      -0.08672506       5.88648667       66       0.58279169       1.53071833      -0.56702375