96
Lattice="8.90167614 0.0 0.0 -4.453291296237123 8.51309556446466 0.0 -1.4157365505208971e-05 -1.7433630336858864e-05 14.055749309982057" Properties=species:S:1:pos:R:3:spacegroup_kinds:I:1:forces:R:3 spacegroup="P 1" unit_cell=conventional occupancy="_JSON {\"0\": {\"Cu\": 1}, \"1\": {\"Cu\": 1}, \"2\": {\"Cu\": 1}, \"3\": {\"Cu\": 1}, \"4\": {\"H\": 1}, \"5\": {\"H\": 1}, \"6\": {\"H\": 1}, \"7\": {\"H\": 1}, \"8\": {\"H\": 1}, \"9\": {\"H\": 1}, \"10\": {\"H\": 1}, \"11\": {\"H\": 1}, \"12\": {\"H\": 1}, \"13\": {\"H\": 1}, \"14\": {\"H\": 1}, \"15\": {\"H\": 1}, \"16\": {\"H\": 1}, \"17\": {\"H\": 1}, \"18\": {\"H\": 1}, \"19\": {\"H\": 1}, \"20\": {\"H\": 1}, \"21\": {\"H\": 1}, \"22\": {\"H\": 1}, \"23\": {\"H\": 1}, \"24\": {\"H\": 1}, \"25\": {\"H\": 1}, \"26\": {\"H\": 1}, \"27\": {\"H\": 1}, \"28\": {\"H\": 1}, \"29\": {\"H\": 1}, \"30\": {\"H\": 1}, \"31\": {\"H\": 1}, \"32\": {\"H\": 1}, \"33\": {\"H\": 1}, \"34\": {\"H\": 1}, \"35\": {\"H\": 1}, \"36\": {\"C\": 1}, \"37\": {\"C\": 1}, \"38\": {\"C\": 1}, \"39\": {\"C\": 1}, \"40\": {\"C\": 1}, \"41\": {\"C\": 1}, \"42\": {\"C\": 1}, \"43\": {\"C\": 1}, \"44\": {\"C\": 1}, \"45\": {\"C\": 1}, \"46\": {\"C\": 1}, \"47\": {\"C\": 1}, \"48\": {\"C\": 1}, \"49\": {\"C\": 1}, \"50\": {\"C\": 1}, \"51\": {\"C\": 1}, \"52\": {\"C\": 1}, \"53\": {\"C\": 1}, \"54\": {\"C\": 1}, \"55\": {\"C\": 1}, \"56\": {\"C\": 1}, \"57\": {\"C\": 1}, \"58\": {\"C\": 1}, \"59\": {\"C\": 1}, \"60\": {\"C\": 1}, \"61\": {\"C\": 1}, \"62\": {\"C\": 1}, \"63\": {\"C\": 1}, \"64\": {\"C\": 1}, \"65\": {\"C\": 1}, \"66\": {\"C\": 1}, \"67\": {\"C\": 1}, \"68\": {\"C\": 1}, \"69\": {\"C\": 1}, \"70\": {\"C\": 1}, \"71\": {\"C\": 1}, \"72\": {\"C\": 1}, \"73\": {\"C\": 1}, \"74\": {\"C\": 1}, \"75\": {\"C\": 1}, \"76\": {\"C\": 1}, \"77\": {\"C\": 1}, \"78\": {\"C\": 1}, \"79\": {\"C\": 1}, \"80\": {\"C\": 1}, \"81\": {\"C\": 1}, \"82\": {\"C\": 1}, \"83\": {\"C\": 1}, \"84\": {\"I\": 1}, \"85\": {\"I\": 1}, \"86\": {\"I\": 1}, \"87\": {\"I\": 1}, \"88\": {\"N\": 1}, \"89\": {\"N\": 1}, \"90\": {\"N\": 1}, \"91\": {\"N\": 1}, \"92\": {\"N\": 1}, \"93\": {\"N\": 1}, \"94\": {\"N\": 1}, \"95\": {\"N\": 1}}" energy=-645.3585815429688 free_energy=-645.3585815429688 stress="-0.005853250157088041 8.192133827833459e-05 -0.00018501679005566984 8.192133827833459e-05 -0.004865055438131094 5.89856572332792e-05 -0.00018501679005566984 5.89856572332792e-05 0.003435152117162943" pbc="T T T"
Cu       4.45162621       5.53929975       3.51305192        0      -0.00820422       0.22421175       0.00458762
Cu      -0.00044360       5.53927172      10.54105059        1      -0.00323185       0.22219554       0.00555899
Cu      -0.00188446       2.97364542      10.54105508        2       0.00111268      -0.21495873      -0.00141471
Cu       4.45198210       2.97344324       3.51477825        3      -0.00637741      -0.21662900      -0.00016101
H        5.38986792       5.21175159       0.70822993        4       0.08450022      -0.04281629      -0.13159043
H        0.93886578       5.21204926      13.34725026        5       0.07929328      -0.04052004       0.13294289
H        0.93793818       3.30589449       7.73645935        6       0.09989578       0.05635825      -0.13006854
H       -0.94284383       5.20603824       7.73657763        7      -0.03780381       0.00190968      -0.12939024
H       -0.94250853       3.30154941      13.34745881        8      -0.07237687       0.03358599       0.13070209
H        3.50760883       3.30066176       0.70802234        9      -0.09175542       0.05348079      -0.12383398
H        3.50889654       5.20725190       6.31930460       10      -0.06634162      -0.02591802       0.12514549
H        5.39015183       3.30535521       6.31971432       11       0.06868783       0.02652051       0.12648162
H        4.56497006       5.87469633      12.49201309       12       0.00675137       0.02516264       0.08617374
H        0.11254140       5.87515450       1.56213757       13       0.03869344      -0.00302342      -0.03385876
H        0.11403436       2.64507167       5.46379249       14       0.01716037      -0.01726895       0.07015215
H       -0.11678858       5.87007626       5.46322475       15      -0.03023857       0.00239807       0.05536729
H       -0.11960879       2.63984435       1.56316027       16      -0.00534154      -0.03018899      -0.09293365
H        4.33330457       2.63964606      12.49207927       17      -0.02454269      -0.00911970       0.06289130
H        4.33366312       5.86955936       8.59116076       18      -0.01812419       0.01287881      -0.07239510
H        4.56436433       2.64455159       8.59168972       19       0.01857923      -0.01787837      -0.08420023
H        6.05192190       0.86679990      12.29956562       20       0.00116434      -0.04353652       0.00662261
H        1.60123561       0.86671130       1.75424435       21      -0.00233527      -0.03528078      -0.02245888
H        1.59943020       7.64435067       5.27016630       22       0.00011526       0.03861497       0.01274630
H        7.29802455       0.86925919       5.27103881       23       0.00437311      -0.03459528       0.01364028
H       -1.60567446       7.64923964       1.75456934       24       0.01306000       0.02733364      -0.03010222
H        2.84505093       7.64782115      12.29963478       25       0.01550413       0.02878884       0.03468099
H        2.84663876       0.86941385       8.78367942       26       0.01226630      -0.02326610      -0.03640035
H       -2.85098534       7.64636728       8.78316408       27      -0.01557113       0.02253382      -0.03112122
H        3.10602264       7.61689624       3.77950896       28      -0.00796890       0.08519831       0.00015801
H       -1.34525591       7.61635865      10.27284552       29      -0.01010086       0.08516677       0.03539021
H        7.55908532       0.89827543      10.80789273       30      -0.04405008      -0.11799257      -0.06662355
H        1.33872061       7.61545571      10.80825720       31       0.03248731       0.10647644      -0.05556543
H        1.34154067       0.89734225      10.27400680       32       0.00380359      -0.07573988      -0.02051289
H        5.79076909       0.89803731       3.78018968       33       0.02753446      -0.10139860      -0.02694352
H       -3.11047713       7.61578430       3.24672099       34       0.02881500       0.10104205       0.05639483
H        3.10927211       0.89764488       3.24686427       35      -0.01896869      -0.08761016       0.01554613
C        4.62654078       5.97643503       0.58784334       36      -0.08526820       0.01876408       0.02170110
C        0.17499039       5.97676938      13.46687953       37      -0.00954640      -0.03990895       0.05445319
C        0.17579288       2.54095701       7.61518308       38      -0.07229356       0.00060460      -0.00814809
C       -0.17870902       5.97268150       7.61648891       39       0.01906323      -0.03730616      -0.10016567
C       -0.17811821       2.53688726      13.46692406       40      -0.01983884       0.08077453       0.02650752
C        4.27138315       2.53682705       0.58795993       41       0.06024221       0.01457375      -0.02464794
C        4.27238929       5.97279404       6.43985634       42       0.02569398      -0.03132734      -0.01682198
C        4.62635659       2.53996724       6.43971288       43       0.00952622       0.07234463       0.01767687
C        4.16708800       6.36272913      13.38131116       44       0.14926614      -0.07242651       0.07681239
C       -0.28229588       6.36301813       0.67396788       45       0.04571144       0.00957459      -0.12362380
C       -0.28227623       2.15633130       6.35254279       46       0.06477509      -0.01375899       0.08475655
C        0.27877798       6.35820692       6.35176287       47      -0.08283999      -0.01004585       0.16648552
C        0.27847823       2.15198348       0.67372179       48      -0.05964183      -0.00220793      -0.06656885
C        4.72965506       2.15227584      13.38111978       49      -0.05236666      -0.03337010       0.09683129
C        4.72985373       6.35728438       7.70178086       50      -0.07151812       0.00481583      -0.05034201
C        4.16913145       2.15645082       7.70171646       51       0.03500739      -0.02688296      -0.02941258
C        2.71492428       7.97932744       0.39182388       52       0.00384604       0.00666844      -0.00161141
C       -1.73618412       7.97937670      13.66339628       53      -0.00984124       0.01947924      -0.04087996
C        7.16722749       0.53589836       7.41830280       54      -0.00564751      -0.02266921       0.00095816
C        1.73036731       7.97806630       7.41804680       55      -0.00313955       0.02433068       0.00293613
C        1.73235599       0.53469477      13.66247178       56      -0.01764291       0.01092943       0.00075713
C        6.18396136       0.53451857       0.39238980       57      -0.04220487       0.01898242      -0.03620885
C       -2.72077789       7.97825980       6.63595326       58       0.02237917       0.02878470       0.04442513
C        2.71688434       0.53591221       6.63628902       59      -0.03387187      -0.03173918       0.01179503
C        5.69056463       1.01694209       1.64038529       60       0.18858352      -0.15714864       0.28896856
C        1.23982470       1.01700448      12.41507730       61       0.16829829      -0.13802084      -0.41223872
C        1.23807793       7.49753614       8.66697773       62       0.15883215       0.11482578       0.27751148
C        7.65742681       1.01710618       8.66722830       63      -0.08244629      -0.05905379       0.28587443
C       -1.24553906       7.49813151      12.41549716       64      -0.04764513       0.03742269      -0.35416305
C        3.20584793       7.49797883       1.63972439       65      -0.10125265       0.09099977       0.33907902
C        3.20686126       1.01685522       5.38841533       66      -0.06735368      -0.05077899      -0.35435307
C       -3.21095820       7.49693141       5.38841559       67       0.11821289       0.09854859      -0.33111304
C        3.21193841       7.36283334      13.28237689       68      -0.04198702      -0.01345552       0.09908310
C       -1.23947678       7.36352707       0.77191165       69       0.02311524      -0.06952224      -0.06578140
C        7.66341189       1.15407602       6.25359130       70       0.02339222       0.06678155       0.12260049
C        1.23451452       7.35993518       6.25291731       71      -0.01541347      -0.05440569       0.13440154
C        1.23641757       1.15167990       0.77123322       72      -0.03260492       0.06843333      -0.07380632
C        5.68651330       1.15017585      13.28213615       73      -0.02894497       0.09396767       0.15816191
C       -3.21676126       7.35950587       7.80059646       74       0.01446202      -0.02219000      -0.10329621
C        3.21199926       1.15523326       7.80054809       75       0.02238764       0.04527429      -0.08787653
C        6.19398754       0.48542281       2.85490849       76       0.01729096       0.07553053      -0.12378553
C        1.74376376       0.48562953      11.19789866       77       0.03833932       0.04192144       0.26977989
C        1.74124423       8.02857480       9.88189564       78      -0.05226530      -0.13355196      -0.10894901
C        7.15508352       0.48458544       9.88173736       79       0.07014367       0.16120452      -0.09419397
C       -1.74656303       8.02770891      11.19921022       80      -0.07363023      -0.01512913       0.14579639
C        2.70403077       8.02954004       2.85505302       81      -0.04318990      -0.06056768      -0.17161845
C        2.70594034       0.48611554       4.17177270       82      -0.01374012       0.06613344       0.20050657
C       -2.70829568       8.02835592       4.17338599       83      -0.00461426      -0.08617884       0.08664732
I       -2.11844734       4.25680123       3.51094537       84       0.17238516       0.00107908       0.00012526
I        2.33295835       4.25671142      10.54108687       85       0.16742295       0.00034464       0.00077814
I        6.56622179       4.25726289      10.54273000       86      -0.16792390       0.00033429       0.00089608
I        2.11491380       4.25675999       3.51412601       87      -0.16240986      -0.00077221      -0.00189142
N        4.14877781       6.50559903       1.72380445       88      -0.02829134      -0.09591608      -0.34308308
N       -0.30006151       6.50482515      12.33250479       89      -0.13223451      -0.00084159       0.25611433
N       -0.30180671       2.01207807       8.74979184       90      -0.08481055       0.02251355      -0.27668887
N        0.29806549       6.50383991       8.74954663       91       0.02107123      -0.09686723      -0.25665084
N        0.29782306       2.01034468      12.33153802       92       0.08341795       0.02931362       0.28312564
N        4.74983677       2.00854684       1.72280912       93      -0.00099234       0.11077528      -0.28450486
N        4.74930194       6.50376615       5.30579460       94       0.03031821      -0.09522363       0.26588255
N        4.14991822       2.01111856       5.30615598       95      -0.09623702       0.01911928       0.23538873
96
Lattice="8.90167614 0.0 0.0 -4.453291296237123 8.51309556446466 0.0 -1.4157365505208971e-05 -1.7433630336858864e-05 14.055749309982057" Properties=species:S:1:pos:R:3:spacegroup_kinds:I:1:forces:R:3 spacegroup="P 1" unit_cell=conventional occupancy="_JSON {\"0\": {\"Cu\": 1}, \"1\": {\"Cu\": 1}, \"2\": {\"Cu\": 1}, \"3\": {\"Cu\": 1}, \"4\": {\"H\": 1}, \"5\": {\"H\": 1}, \"6\": {\"H\": 1}, \"7\": {\"H\": 1}, \"8\": {\"H\": 1}, \"9\": {\"H\": 1}, \"10\": {\"H\": 1}, \"11\": {\"H\": 1}, \"12\": {\"H\": 1}, \"13\": {\"H\": 1}, \"14\": {\"H\": 1}, \"15\": {\"H\": 1}, \"16\": {\"H\": 1}, \"17\": {\"H\": 1}, \"18\": {\"H\": 1}, \"19\": {\"H\": 1}, \"20\": {\"H\": 1}, \"21\": {\"H\": 1}, \"22\": {\"H\": 1}, \"23\": {\"H\": 1}, \"24\": {\"H\": 1}, \"25\": {\"H\": 1}, \"26\": {\"H\": 1}, \"27\": {\"H\": 1}, \"28\": {\"H\": 1}, \"29\": {\"H\": 1}, \"30\": {\"H\": 1}, \"31\": {\"H\": 1}, \"32\": {\"H\": 1}, \"33\": {\"H\": 1}, \"34\": {\"H\": 1}, \"35\": {\"H\": 1}, \"36\": {\"C\": 1}, \"37\": {\"C\": 1}, \"38\": {\"C\": 1}, \"39\": {\"C\": 1}, \"40\": {\"C\": 1}, \"41\": {\"C\": 1}, \"42\": {\"C\": 1}, \"43\": {\"C\": 1}, \"44\": {\"C\": 1}, \"45\": {\"C\": 1}, \"46\": {\"C\": 1}, \"47\": {\"C\": 1}, \"48\": {\"C\": 1}, \"49\": {\"C\": 1}, \"50\": {\"C\": 1}, \"51\": {\"C\": 1}, \"52\": {\"C\": 1}, \"53\": {\"C\": 1}, \"54\": {\"C\": 1}, \"55\": {\"C\": 1}, \"56\": {\"C\": 1}, \"57\": {\"C\": 1}, \"58\": {\"C\": 1}, \"59\": {\"C\": 1}, \"60\": {\"C\": 1}, \"61\": {\"C\": 1}, \"62\": {\"C\": 1}, \"63\": {\"C\": 1}, \"64\": {\"C\": 1}, \"65\": {\"C\": 1}, \"66\": {\"C\": 1}, \"67\": {\"C\": 1}, \"68\": {\"C\": 1}, \"69\": {\"C\": 1}, \"70\": {\"C\": 1}, \"71\": {\"C\": 1}, \"72\": {\"C\": 1}, \"73\": {\"C\": 1}, \"74\": {\"C\": 1}, \"75\": {\"C\": 1}, \"76\": {\"C\": 1}, \"77\": {\"C\": 1}, \"78\": {\"C\": 1}, \"79\": {\"C\": 1}, \"80\": {\"C\": 1}, \"81\": {\"C\": 1}, \"82\": {\"C\": 1}, \"83\": {\"C\": 1}, \"84\": {\"I\": 1}, \"85\": {\"I\": 1}, \"86\": {\"I\": 1}, \"87\": {\"I\": 1}, \"88\": {\"N\": 1}, \"89\": {\"N\": 1}, \"90\": {\"N\": 1}, \"91\": {\"N\": 1}, \"92\": {\"N\": 1}, \"93\": {\"N\": 1}, \"94\": {\"N\": 1}, \"95\": {\"N\": 1}}" energy=-645.3839111328125 free_energy=-645.3839111328125 stress="-0.0054907407611608505 0.00013661470438819379 -5.92667238379363e-05 0.00013661470438819379 -0.004509583581238985 -9.026228508446366e-05 -5.92667238379363e-05 -9.026228508446366e-05 0.0010691274655982852" pbc="T T T"
Cu       4.45191677       5.54175766       3.51207490        0      -0.00890975       0.22170587       0.00932977
Cu       0.00044088       5.54204075      10.54027420        1      -0.00716188       0.21909313       0.00938936
Cu      -0.00253906       2.97077542      10.54237159        2       0.00510485      -0.20745385      -0.00729458
Cu       4.45404190       2.97064208       3.51571462        3      -0.01522479      -0.20671870      -0.00592266
H        5.39112214       5.21079196       0.70639979        4       0.02496242       0.01114527      -0.12302377
H        0.93954026       5.21048592      13.34949658        5       0.04436961      -0.01307597       0.11967365
H        0.93935155       3.30748505       7.73352386        6       0.03992447       0.00220182      -0.12628824
H       -0.94527165       5.20568363       7.73403307        7      -0.00758549       0.02567695      -0.12281457
H       -0.94454210       3.30308617      13.34936954        8      -0.07181603       0.03449848       0.10964562
H        3.50522440       3.30275146       0.70519977        9      -0.05375926       0.02373920      -0.12765360
H        3.50695322       5.20790852       6.32118873       10      -0.06297360      -0.02851627       0.10576800
H        5.39170963       3.30594000       6.32212709       11       0.05651615       0.02418956       0.10512273
H        4.56349002       5.87589076      12.49336680       12       0.03766217      -0.00816433       0.03486165
H        0.11229290       5.87591664       1.56008026       13       0.03267771       0.01334587      -0.04475793
H        0.11342866       2.64577390       5.46478650       14       0.02622352      -0.00991032       0.04203217
H       -0.11840862       5.87128367       5.46418470       15      -0.03049365       0.00446308       0.04229234
H       -0.12174317       2.63980124       1.56064690       16      -0.01641935      -0.01949421      -0.04403560
H        4.33202053       2.64000209      12.49291278       17      -0.01213921      -0.02285343       0.07313082
H        4.33145913       5.87038428       8.58957801       18      -0.01800647       0.01717234      -0.06861493
H        4.56351520       2.64597085       8.58889309       19       0.02866624      -0.01481207      -0.05315599
H        6.05082854       0.86608437      12.29921664       20      -0.03259147      -0.01361324       0.08518934
H        1.60006641       0.86697381       1.75340856       21      -0.01944507      -0.01994190      -0.07849354
H        1.59938214       7.64603707       5.27003273       22      -0.02100646       0.01736836       0.07245234
H        7.29661649       0.86946201       5.27085446       23       0.02834156      -0.01417330       0.07507610
H       -1.60716696       7.65061500       1.75188590       24       0.02978329       0.01092225      -0.05273789
H        2.84449554       7.64917821      12.29945145       25       0.02804187       0.01640803       0.07072219
H        2.84550546       0.86955231       8.78152779       26       0.01830257      -0.01645232      -0.04443872
H       -2.85287558       7.64846041       8.78183111       27      -0.02467343       0.00745475      -0.06547266
H        3.10438197       7.61965481       3.77955628       28      -0.01624408       0.08593125      -0.03178495
H       -1.34504110       7.61850465      10.27289017       29      -0.02518195       0.09267612       0.06153663
H        7.55670410       0.89683081      10.80606864       30      -0.01278514      -0.08193405       0.00386257
H        1.33775241       7.61794135      10.80690238       31       0.01853633       0.08024371      -0.02969933
H        1.34074356       0.89647091      10.27238693       32       0.03187127      -0.09801572       0.05542569
H        5.79054580       0.89774367       3.77900464       33       0.02990082      -0.10207792      -0.02832651
H       -3.11049800       7.61749060       3.24658573       34       0.02899723       0.08828347       0.04742546
H        3.10889383       0.89666912       3.24610092       35      -0.03625119      -0.09428618       0.05272481
C        4.62531201       5.97663228       0.58723889       36       0.00770342      -0.06193861       0.03309165
C        0.17400683       5.97551763      13.46740655       37       0.03706807      -0.03000131      -0.01996378
C        0.17417997       2.54198871       7.61335170       38       0.01732412       0.07134235       0.04600180
C       -0.17943828       5.97216453       7.61399324       39       0.00478715      -0.03870869       0.03087189
C       -0.17987194       2.53869965      13.46722720       40       0.03014949       0.01836565       0.01777422
C        4.27101208       2.53890487       0.58526531       41      -0.00209373       0.04607391       0.10144799
C        4.27165334       5.97250014       6.43995115       42       0.00228637      -0.03402898      -0.03709612
C        4.62571415       2.54214664       6.43977523       43       0.01416868       0.04470778       0.01413126
C        4.16808508       6.36185326      13.38236113       44       0.02037116       0.04961783       0.03173950
C       -0.28108255       6.36507911       0.67117134       45       0.02815376      -0.03786775       0.02440134
C       -0.28228032       2.15712988       6.35275313       46       0.02560525      -0.03244105       0.03574666
C        0.27693296       6.35872467       6.35289769       47      -0.02302504       0.03057742       0.04889429
C        0.27629900       2.15184190       0.67301853       48      -0.04924066       0.00474621      -0.08636034
C        4.72893656       2.15249500      13.38245453       49      -0.09120412       0.02993474      -0.05192940
C        4.72722027       6.35744917       7.69970876       50       0.01557831       0.06648106       0.04502010
C        4.16991749       2.15684035       7.69987046       51      -0.03000682      -0.05660170       0.01274636
C        2.71454205       7.97957465       0.39167115       52      -0.05560436       0.07618669       0.04160360
C       -1.73701212       7.98015551      13.66085689       53      -0.02658257       0.03399493       0.02918367
C        7.16600153       0.53657797       7.41829381       54      -0.00465076      -0.01084488       0.05490141
C        1.72981369       7.97882049       7.41831064       55       0.03619792       0.06667229       0.01489181
C        1.73187953       0.53580815      13.66134382       56       0.02614102      -0.04536213      -0.02392017
C        6.18253104       0.53569308       0.39258202       57       0.00444839      -0.03261480      -0.02253798
C       -2.72061738       7.97900392       6.63466301       58       0.01476900       0.01861910       0.02929676
C        2.71560643       0.53515097       6.63530209       59       0.00265703       0.02581618      -0.02096073
C        5.68996035       1.01669647       1.64178802       60       0.10549295      -0.06043873       0.14281981
C        1.24120824       1.01585868      12.41225724       61       0.05496705      -0.01069077      -0.19360918
C        1.23921963       7.50028726       8.66930481       62       0.02315810      -0.05722610       0.06230879
C        7.65513185       1.01862639       8.67009050       63      -0.03277999      -0.02426224       0.06940496
C       -1.24709624       7.50031393      12.41253099       64       0.04934067      -0.06445833      -0.16072272
C        3.20403762       7.50064312       1.64257965       65       0.00512090      -0.04947123       0.08329719
C        3.20482076       1.01802315       5.38544185       66      -0.04280932      -0.03365863      -0.13795720
C       -3.20989013       7.49898956       5.38563021       67       0.01768985      -0.02656312      -0.16162805
C        3.21096351       7.36349556      13.28350694       68       0.01549255      -0.07216397       0.05088846
C       -1.23962936       7.36293619       0.76925278       69      -0.02214982       0.00484585      -0.06281874
C        7.66261757       1.15567364       6.25518766       70      -0.01040757       0.02549915       0.02994758
C        1.23460657       7.36022796       6.25465453       71      -0.03203432      -0.06147330       0.05284757
C        1.23524670       1.15273756       0.76848654       72      -0.01383814       0.04706087       0.03257221
C        5.68453603       1.15204087      13.28383112       73       0.06585276      -0.00461956       0.04852910
C       -3.21679694       7.35966535       7.79780340       74      -0.03480490      -0.05205671      -0.03878408
C        3.21088821       1.15583438       7.79808228       75       0.04653850       0.05311041      -0.05936349
C        6.19256074       0.48686088       2.85240092       76       0.07137918       0.00634819      -0.02013671
C        1.74273888       0.48730862      11.20046399       77       0.11254372      -0.04889096       0.02243454
C        1.73902501       8.02628841       9.87935426       78       0.17259994       0.12057684       0.03319210
C        7.15559242       0.48723105       9.88001155       79      -0.13996047      -0.05519189      -0.04036839
C       -1.74652639       8.02723705      11.20144511       80      -0.14829901       0.08015856      -0.04540690
C        2.70317707       8.02881226       2.85209126       81      -0.11657529       0.04082574       0.03410751
C        2.70523116       0.48834509       4.17378122       82      -0.07643010      -0.02465829       0.01065787
C       -2.70854914       8.02661079       4.17434270       83       0.08510421       0.04223335      -0.01075599
I       -2.11584351       4.25663612       3.51182603       84       0.16411071       0.00214947      -0.00054930
I        2.33575027       4.25708246      10.53863920       85       0.15874583      -0.00171736       0.00313202
I        6.56442527       4.25677853      10.54101213       86      -0.16078380       0.00397012       0.00247760
I        2.11201927       4.25794966       3.51393276       87      -0.15154360      -0.00220458      -0.00219268
N        4.14732516       6.50581095       1.72084484       88      -0.05314707      -0.05744165      -0.20026127
N       -0.30052258       6.50655919      12.33524777       89      -0.11980928      -0.03719003       0.13142034
N       -0.30366067       2.01380693       8.74695251       90      -0.07424802       0.03539844      -0.17638412
N        0.29987635       6.50308296       8.74667151       91      -0.00186003      -0.09646872      -0.19877517
N        0.29903116       2.01036738      12.33425582       92       0.03861778       0.07291605       0.18583745
N        4.74819782       2.01017054       1.71987736       93       0.02819442       0.08669085      -0.20325541
N        4.74966416       6.50414227       5.30845373       94       0.04480247      -0.07782480       0.12957081
N        4.14726298       2.01197760       5.30867960       95      -0.05048527       0.06913545       0.11740127
96
Lattice="8.90167614 0.0 0.0 -4.453291296237123 8.51309556446466 0.0 -1.4157365505208971e-05 -1.7433630336858864e-05 14.055749309982057" Properties=species:S:1:pos:R:3:spacegroup_kinds:I:1:forces:R:3 spacegroup="P 1" unit_cell=conventional occupancy="_JSON {\"0\": {\"Cu\": 1}, \"1\": {\"Cu\": 1}, \"2\": {\"Cu\": 1}, \"3\": {\"Cu\": 1}, \"4\": {\"H\": 1}, \"5\": {\"H\": 1}, \"6\": {\"H\": 1}, \"7\": {\"H\": 1}, \"8\": {\"H\": 1}, \"9\": {\"H\": 1}, \"10\": {\"H\": 1}, \"11\": {\"H\": 1}, \"12\": {\"H\": 1}, \"13\": {\"H\": 1}, \"14\": {\"H\": 1}, \"15\": {\"H\": 1}, \"16\": {\"H\": 1}, \"17\": {\"H\": 1}, \"18\": {\"H\": 1}, \"19\": {\"H\": 1}, \"20\": {\"H\": 1}, \"21\": {\"H\": 1}, \"22\": {\"H\": 1}, \"23\": {\"H\": 1}, \"24\": {\"H\": 1}, \"25\": {\"H\": 1}, \"26\": {\"H\": 1}, \"27\": {\"H\": 1}, \"28\": {\"H\": 1}, \"29\": {\"H\": 1}, \"30\": {\"H\": 1}, \"31\": {\"H\": 1}, \"32\": {\"H\": 1}, \"33\": {\"H\": 1}, \"34\": {\"H\": 1}, \"35\": {\"H\": 1}, \"36\": {\"C\": 1}, \"37\": {\"C\": 1}, \"38\": {\"C\": 1}, \"39\": {\"C\": 1}, \"40\": {\"C\": 1}, \"41\": {\"C\": 1}, \"42\": {\"C\": 1}, \"43\": {\"C\": 1}, \"44\": {\"C\": 1}, \"45\": {\"C\": 1}, \"46\": {\"C\": 1}, \"47\": {\"C\": 1}, \"48\": {\"C\": 1}, \"49\": {\"C\": 1}, \"50\": {\"C\": 1}, \"51\": {\"C\": 1}, \"52\": {\"C\": 1}, \"53\": {\"C\": 1}, \"54\": {\"C\": 1}, \"55\": {\"C\": 1}, \"56\": {\"C\": 1}, \"57\": {\"C\": 1}, \"58\": {\"C\": 1}, \"59\": {\"C\": 1}, \"60\": {\"C\": 1}, \"61\": {\"C\": 1}, \"62\": {\"C\": 1}, \"63\": {\"C\": 1}, \"64\": {\"C\": 1}, \"65\": {\"C\": 1}, \"66\": {\"C\": 1}, \"67\": {\"C\": 1}, \"68\": {\"C\": 1}, \"69\": {\"C\": 1}, \"70\": {\"C\": 1}, \"71\": {\"C\": 1}, \"72\": {\"C\": 1}, \"73\": {\"C\": 1}, \"74\": {\"C\": 1}, \"75\": {\"C\": 1}, \"76\": {\"C\": 1}, \"77\": {\"C\": 1}, \"78\": {\"C\": 1}, \"79\": {\"C\": 1}, \"80\": {\"C\": 1}, \"81\": {\"C\": 1}, \"82\": {\"C\": 1}, \"83\": {\"C\": 1}, \"84\": {\"I\": 1}, \"85\": {\"I\": 1}, \"86\": {\"I\": 1}, \"87\": {\"I\": 1}, \"88\": {\"N\": 1}, \"89\": {\"N\": 1}, \"90\": {\"N\": 1}, \"91\": {\"N\": 1}, \"92\": {\"N\": 1}, \"93\": {\"N\": 1}, \"94\": {\"N\": 1}, \"95\": {\"N\": 1}}" energy=-645.3988037109375 free_energy=-645.3988037109375 stress="-0.005650023464113474 7.578892109449953e-05 -0.00015167570381890982 7.578892109449953e-05 -0.004685003776103258 7.184156129369512e-05 -0.00015167570381890982 7.184156129369512e-05 -0.00043103829375468194" pbc="T T T"
Cu       4.45450493       5.54465089       3.51213855        0      -0.01764785       0.21127015       0.00324720
Cu       0.00159960       5.54460585      10.54037149        1      -0.01245047       0.21084027       0.00911864
Cu      -0.00165791       2.96819729      10.54097342        2       0.00207400      -0.19698067       0.00084929
Cu       4.45589833       2.96768589       3.51608850        3      -0.02125377      -0.19557802      -0.01156366
H        5.39084563       5.21107533       0.70360979        4       0.01113963       0.02294309      -0.11527318
H        0.94113794       5.20983996      13.35164530        5      -0.01118910       0.04249938       0.09986337