61
Lattice="7.36225017 0.0 0.0 2.7667690779165066 7.459073348248285 0.0 0.20342606519308393 0.15109926434587007 12.86770023256627" Properties=species:S:1:pos:R:3:spacegroup_kinds:I:1:forces:R:3 spacegroup="P 1" unit_cell=conventional occupancy="_JSON {\"0\": {\"Cd\": 1}, \"1\": {\"Cd\": 1}, \"2\": {\"Cd\": 1}, \"3\": {\"H\": 1}, \"4\": {\"H\": 1}, \"5\": {\"H\": 1}, \"6\": {\"H\": 1}, \"7\": {\"H\": 1}, \"8\": {\"H\": 1}, \"9\": {\"H\": 1}, \"10\": {\"H\": 1}, \"11\": {\"H\": 1}, \"12\": {\"H\": 1}, \"13\": {\"H\": 1}, \"14\": {\"H\": 1}, \"15\": {\"H\": 1}, \"16\": {\"H\": 1}, \"17\": {\"H\": 1}, \"18\": {\"H\": 1}, \"19\": {\"H\": 1}, \"20\": {\"H\": 1}, \"21\": {\"C\": 1}, \"22\": {\"C\": 1}, \"23\": {\"C\": 1}, \"24\": {\"C\": 1}, \"25\": {\"C\": 1}, \"26\": {\"C\": 1}, \"27\": {\"C\": 1}, \"28\": {\"C\": 1}, \"29\": {\"C\": 1}, \"30\": {\"C\": 1}, \"31\": {\"C\": 1}, \"32\": {\"C\": 1}, \"33\": {\"C\": 1}, \"34\": {\"C\": 1}, \"35\": {\"C\": 1}, \"36\": {\"C\": 1}, \"37\": {\"C\": 1}, \"38\": {\"C\": 1}, \"39\": {\"C\": 1}, \"40\": {\"C\": 1}, \"41\": {\"C\": 1}, \"42\": {\"C\": 1}, \"43\": {\"Br\": 1}, \"44\": {\"Br\": 1}, \"45\": {\"Br\": 1}, \"46\": {\"Br\": 1}, \"47\": {\"N\": 1}, \"48\": {\"N\": 1}, \"49\": {\"N\": 1}, \"50\": {\"N\": 1}, \"51\": {\"N\": 1}, \"52\": {\"N\": 1}, \"53\": {\"N\": 1}, \"54\": {\"N\": 1}, \"55\": {\"N\": 1}, \"56\": {\"N\": 1}, \"57\": {\"N\": 1}, \"58\": {\"N\": 1}, \"59\": {\"O\": 1}, \"60\": {\"O\": 1}}" energy=-397.6423645019531 free_energy=-397.6423645019531 stress="0.001045683864504099 -0.0037280828692018986 0.0007684350130148232 -0.0037280828692018986 0.002848404459655285 -0.0017195058753713965 0.0007684350130148232 -0.0017195058753713965 -0.0010705195600166917" pbc="T T T"
Cd       3.68118659       0.00003545       0.00001905        0      -0.00168053       0.00095520      -0.00444854
Cd       6.72942674       5.32479557       3.36864766        1       0.40674695      -0.33274660       0.06983392
Cd       3.60227017       2.28275608       9.49565584        2      -0.41153014       0.34121716      -0.05789532
H        6.65543813       3.20113475       0.77004450        3       0.03780110       0.01905978       0.04632756
H        3.67379609       4.41069950      12.09455621        4       0.06287310      -0.05525517      -0.00923409
H        0.96147914       1.53217100      12.63093787        5       0.00974835       0.02167985      -0.00634472
H        9.36903033       6.07784316       0.23319222        6       0.01019674      -0.00009079       0.04564740
H        3.74562225       2.24795464       2.52112901        7       0.02429360      -0.00277326       0.10264941
H        6.58491806       5.36237774      10.34522075        8       0.05854166      -0.01978270      -0.07983034
H        2.47872456       5.82955342       8.36929790        9      -0.00764793      -0.08962551       0.06706893
H        7.85154539       1.78214583       4.49701938       10       0.04217875       0.04538454      -0.04523384
H        5.98253051       0.15893110       9.73003770       11       0.04988880      -0.08006804       0.09059130
H        4.34809071       7.44933354       3.13519710       12      -0.03808524       0.09106266      -0.00363916
H        4.30258724       1.89591958       6.37050750       13       0.03173782       0.02499984      -0.02943942
H        6.02772012       5.71558704       6.49628283       14       0.00864148      -0.08660839       0.05175900
H        5.32064942       0.20105330       4.87359082       15       0.01612873      -0.01705109       0.02836013
H        5.00982839       7.40894160       7.99216478       16      -0.01777941       0.01829397      -0.04035887
H        4.97488934       3.44682278       4.65336395       17      -0.00084229       0.00221150       0.07600171
H        5.35615071       4.16107896       8.21463088       18       0.04424731       0.00660104      -0.11273909
H        6.36410574       3.26768208       5.45850103       19      -0.11369112       0.08269985      -0.04377729
H        3.96614737       4.34059001       7.40828378       20       0.11565454      -0.06513376      -0.03648709
C        7.64314593       2.97004340       1.16867890       21      -0.11921164      -0.08682965       0.00087788
C        2.68848243       4.63833753      11.69728165       22       0.00521129       0.17381176       0.00513670
C        1.08748705       1.98350426       0.60950019       23      -0.00332364      -0.08345367      -0.03835122
C        9.24387577       5.62590782      12.25662340       24       0.01278853       0.04494131      -0.00527167
C        2.74563912       2.46201073       2.14901126       25      -0.10778993      -0.00528273      -0.08444659
C        7.58765151       5.14732068      10.71742009       26      -0.03577599       0.02742870       0.02208216
C        1.90821775       3.41055605       2.75840327       27      -0.07385997      -0.05225584      -0.07823282
C        8.42412050       4.19905869      10.10761657       28       0.04606088       0.03716086       0.03131291
C        2.23094455       4.10684753       3.99722120       29       0.07132022      -0.24661636      -0.10601366
C        8.10221600       3.50326308       8.86664989       30      -0.10353172       0.27181283       0.16835110
C        9.39575821       5.41845538       5.66585959       31      -0.01445027       0.02138497       0.07084951
C        0.93723437       2.19049215       7.20077799       32      -0.05518977       0.00265694      -0.18657714
C        8.94301092       6.51698361       6.51279681       33      -0.05071476       0.11926405       0.14434847
C        1.39128351       1.09161890       6.35263201       34      -0.04801888       0.00114128      -0.13714284
C        9.19865169       6.56173499       7.89202192       35      -0.09649158       0.08730596       0.04736053
C        1.13284356       1.04800442       4.97343106       36       0.07656267      -0.03381009      -0.03384985
C        8.59897015       7.55682318       8.65685060       37       0.07343645      -0.14876208       0.00410026
C        1.73266057       0.05385212       4.21081149       38      -0.04774651       0.06375267      -0.15582985
C        4.89939941       1.08344576       6.78509278       39      -0.03810495       0.08621597       0.02982074
C        5.43193394       6.52488081       6.07997405       40      -0.00965604       0.00507723       0.01402767
C        5.45820272       0.12319739       5.95094485       41       0.03085028      -0.03711603       0.10830657
C        4.87222651       7.48742661       6.91448840       42       0.05821229      -0.08992105      -0.09846486
Br       5.36146125       0.07280439       2.14733960       43      -0.06383859      -0.03416303       0.04540222
Br       4.97059212       7.53445846      10.71931374       44       0.06513298       0.03924024      -0.04710232
Br       4.94629740       5.43683667       1.29850930       45       0.20235488       0.17953868      -0.07879174
Br       5.38584132       2.17259618      11.56635167       46      -0.20500630      -0.17992915       0.07924052
N        8.05326409       3.67667631       2.22958303       47       0.00183456       0.16076638      -0.10668215
N        2.27753814       3.93344000      10.63680761       48       0.05739802      -0.21652558       0.08126044
N        2.32556665       1.75324586       1.08748057       49       0.01799649      -0.04896954      -0.00008848
N        8.00620668       5.85636254      11.77812555       50       0.00336897       0.05794632       0.03012094
N        3.23617134       3.80120004       4.84441498       51      -0.05407067      -0.03247704      -0.00631221
N        7.09540801       3.80839782       8.02150344       52       0.08051927       0.02072582      -0.03714199
N        3.09570016       4.62770816       5.91178895       53      -0.03498887       0.00582775       0.15731572
N        7.23640168       2.98355894       6.95127879       54       0.10480720      -0.06004605      -0.06661906
N        8.80751867       5.10709850       4.47937912       55       0.02448028       0.12622023      -0.09457682
N        1.52466947       2.50202765       8.38547165       56      -0.00855231      -0.11195165       0.12384655
N        5.02376466       1.03599325       8.12134852       57      -0.02334513      -0.01526566      -0.08473369
N        5.30909169       6.57225058       4.74489925       58      -0.02269882       0.07053736       0.06241947
O        5.97005728       3.41494266       4.54462885       59      -0.15348816      -0.18705830      -0.05099076
O        4.36209370       4.19489184       8.31899841       60       0.11009809       0.16264594       0.16222654
61
Lattice="7.36225017 0.0 0.0 2.7667690779165066 7.459073348248285 0.0 0.20342606519308393 0.15109926434587007 12.86770023256627" Properties=species:S:1:pos:R:3:spacegroup_kinds:I:1:forces:R:3 spacegroup="P 1" unit_cell=conventional occupancy="_JSON {\"0\": {\"Cd\": 1}, \"1\": {\"Cd\": 1}, \"2\": {\"Cd\": 1}, \"3\": {\"H\": 1}, \"4\": {\"H\": 1}, \"5\": {\"H\": 1}, \"6\": {\"H\": 1}, \"7\": {\"H\": 1}, \"8\": {\"H\": 1}, \"9\": {\"H\": 1}, \"10\": {\"H\": 1}, \"11\": {\"H\": 1}, \"12\": {\"H\": 1}, \"13\": {\"H\": 1}, \"14\": {\"H\": 1}, \"15\": {\"H\": 1}, \"16\": {\"H\": 1}, \"17\": {\"H\": 1}, \"18\": {\"H\": 1}, \"19\": {\"H\": 1}, \"20\": {\"H\": 1}, \"21\": {\"C\": 1}, \"22\": {\"C\": 1}, \"23\": {\"C\": 1}, \"24\": {\"C\": 1}, \"25\": {\"C\": 1}, \"26\": {\"C\": 1}, \"27\": {\"C\": 1}, \"28\": {\"C\": 1}, \"29\": {\"C\": 1}, \"30\": {\"C\": 1}, \"31\": {\"C\": 1}, \"32\": {\"C\": 1}, \"33\": {\"C\": 1}, \"34\": {\"C\": 1}, \"35\": {\"C\": 1}, \"36\": {\"C\": 1}, \"37\": {\"C\": 1}, \"38\": {\"C\": 1}, \"39\": {\"C\": 1}, \"40\": {\"C\": 1}, \"41\": {\"C\": 1}, \"42\": {\"C\": 1}, \"43\": {\"Br\": 1}, \"44\": {\"Br\": 1}, \"45\": {\"Br\": 1}, \"46\": {\"Br\": 1}, \"47\": {\"N\": 1}, \"48\": {\"N\": 1}, \"49\": {\"N\": 1}, \"50\": {\"N\": 1}, \"51\": {\"N\": 1}, \"52\": {\"N\": 1}, \"53\": {\"N\": 1}, \"54\": {\"N\": 1}, \"55\": {\"N\": 1}, \"56\": {\"N\": 1}, \"57\": {\"N\": 1}, \"58\": {\"N\": 1}, \"59\": {\"O\": 1}, \"60\": {\"O\": 1}}" energy=-397.657958984375 free_energy=-397.657958984375 stress="0.0008497584494762123 -0.003750444855540991 0.001136063365265727 -0.003750444855540991 0.003093102714046836 -0.001662018708884716 0.001136063365265727 -0.001662018708884716 -0.0004584371636155993" pbc="T T T"
Cd       3.68077982       0.00035566      -0.00045495        0       0.00124553      -0.00121013      -0.00520284
Cd       6.73184031       5.32264499       3.36853634        1       0.37360877      -0.31238633       0.08101387
Cd       3.59947637       2.28550505       9.49291970        2      -0.37687686       0.31599450      -0.06462075
H        6.65579066       3.20097230       0.77029162        3      -0.03970139       0.03331373       0.01356702
H        3.67318540       4.41164195      12.09233185        4       0.08814000      -0.05390681       0.01618604
H        0.96019703       1.53294719      12.62960930        5       0.00140902      -0.01060759      -0.04642200
H        9.36861661       6.07853963       0.23221889        6      -0.00003597       0.00166651       0.03807239
H        3.74495971       2.24714072       2.52168391        7      -0.04336733       0.01117674       0.07964277
H        6.58490082       5.36319970      10.34307753        8       0.02980572      -0.01643914      -0.09042440
H        2.47916453       5.82819303       8.37088873        9      -0.07552165      -0.01528622       0.01571830
H        7.85221356       1.78395465       4.49456512       10       0.07907851      -0.00731027      -0.01121607
H        5.98220227       0.15663627       9.73159526       11       0.03565937      -0.07236029      -0.00881436
H        4.34557918       7.45068905       3.13410906       12      -0.03457459       0.07823776      -0.04258161
H        4.30154066       1.89794630       6.36903511       13       0.01850823       0.03802581      -0.03423132
H        6.02617437       5.71369357       6.49734304       14      -0.02079576      -0.03644061       0.01206967
H        5.31992929       0.20174275       4.87332550       15       0.02554351      -0.03247158       0.04678479
H        5.00723716       7.41062930       7.98970708       16      -0.00817738       0.00462212      -0.01686952
H        4.97481591       3.44543293       4.65293828       17      -0.08744661       0.00786520       0.07442553
H        5.35683459       4.16199020       8.21318617       18       0.08314978       0.00033893      -0.09931483
H        6.36118834       3.26770697       5.45575699       19      -0.08807491       0.07616566      -0.02102337
H        3.96773647       4.33834687       7.40826316       20       0.11930948      -0.06418686       0.01756452
C        7.64088078       2.96940525       1.16790921       21       0.02270421      -0.12362002       0.01304424
C        2.68803841       4.64008873      11.69798708       22      -0.04976362       0.07173257      -0.13801146
C        1.08672051       1.98239749       0.60724455       23      -0.01263963      -0.00514878       0.05247073
C        9.24233559       5.62705758      12.25539150       24       0.05810625       0.03773448       0.01371703
C        2.74308554       2.46100548       2.14782261       25      -0.01759237      -0.02174039      -0.05702336
C        7.58623132       5.14737203      10.71565987       26       0.03707829       0.06062129       0.08724824
C        1.90601347       3.41024509       2.75645637       27      -0.01712029      -0.07588682      -0.08423930
C        8.42425631       4.20042668      10.10690534       28       0.02957865       0.01782814       0.04886773
C        2.23205556       4.10387088       3.99445737       29      -0.04448219      -0.04929157       0.02434526
C        8.09933596       3.50615797       8.86782487       30       0.01819132       0.08961885       0.04546750
C        9.39564698       5.41872503       5.66715894       31      -0.09274963       0.04408158      -0.03705575
C        0.93614465       2.19150978       7.19803256       32       0.07217185      -0.04253302      -0.05498774
C        8.94099734       6.51936420       6.51386299       33       0.00878522       0.00331283       0.11986186
C        1.39015310       1.09169013       6.34977583       34       0.00377677      -0.04340039      -0.04752886
C        9.19617039       6.56285854       7.89367132       35       0.06500819      -0.12113918      -0.01974572
C        1.13282858       1.04664914       4.97225441       36      -0.02147458       0.09238197      -0.11124304
C        8.60016391       7.55498911       8.65519970       37      -0.03468707       0.00822532       0.18986061
C        1.73083864       0.05450090       4.20834666       38       0.02394375      -0.00247432      -0.08224636
C        4.89724676       1.08531846       6.78311761       39       0.02852863       0.00994921       0.09209352
C        5.43130750       6.52523507       6.07839594       40       0.03928858      -0.07558335       0.06237878
C        5.45761096       0.12298940       5.95130331       41      -0.02301775       0.04116734       0.02792867
C        4.87184635       7.48608556       6.91231148       42      -0.01292307       0.02621330      -0.09003676
Br       5.35972500       0.06996187       2.14852337       43      -0.05995706      -0.02343234       0.03900490
Br       4.97250899       7.53579913      10.71753271       44       0.05852826       0.03309153      -0.04575172
Br       4.94769868       5.43859338       1.29673118       45       0.20050968       0.17366751      -0.07215738
Br       5.38359327       2.16967594      11.56459856       46      -0.20338151      -0.17207566       0.07669058
N        8.05298255       3.67878546       2.22729907       47      -0.04356037       0.12044828      -0.13707323
N        2.27714802       3.93072482      10.63582307       48       0.05969183      -0.08014464       0.20203783
N        2.32567396       1.75257439       1.08584357       49      -0.03670903      -0.04550517      -0.02632985
N        8.00544119       5.85679360      11.77686608       50      -0.05375946       0.05484280       0.00079724
N        3.23356005       3.80009134       4.84414891       51       0.00250002      -0.05731653       0.03620149
N        7.09594860       3.80978373       8.02041121       52       0.05072295       0.01897216      -0.08706927
N        3.09392750       4.62752918       5.91335714       53      -0.03968560      -0.03992029       0.09645382
N        7.23891467       2.98342922       6.94861999       54       0.01659784       0.03795172      -0.03608236
N        8.80783277       5.10934048       4.47658183       55       0.13339603       0.04636499      -0.03610300
N        1.52397599       2.50074323       8.38703939       56      -0.13228589      -0.03388360       0.05999112
N        5.02407611       1.03455537       8.11879731       57      -0.04972579       0.03455935      -0.05327237
N        5.30875076       6.57374150       4.74467132       58      -0.03862326       0.05690016      -0.04611906
O        5.96736978       3.41281988       4.54250824       59      -0.08170081      -0.18543470      -0.07176967
O        4.36402608       4.19580230       8.32091297       60       0.05584507       0.17406482       0.09106087
61
Lattice="7.36225017 0.0 0.0 2.7667690779165066 7.459073348248285 0.0 0.20342606519308393 0.15109926434587007 12.86770023256627" Properties=species:S:1:pos:R:3:spacegroup_kinds:I:1:forces:R:3 spacegroup="P 1" unit_cell=conventional occupancy="_JSON {\"0\": {\"Cd\": 1}, \"1\": {\"Cd\": 1}, \"2\": {\"Cd\": 1}, \"3\": {\"H\": 1}, \"4\": {\"H\": 1}, \"5\": {\"H\": 1}, \"6\": {\"H\": 1}, \"7\": {\"H\": 1}, \"8\": {\"H\": 1}, \"9\": {\"H\": 1}, \"10\": {\"H\": 1}, \"11\": {\"H\": 1}, \"12\": {\"H\": 1}, \"13\": {\"H\": 1}, \"14\": {\"H\": 1}, \"15\": {\"H\": 1}, \"16\": {\"H\": 1}, \"17\": {\"H\": 1}, \"18\": {\"H\": 1}, \"19\": {\"H\": 1}, \"20\": {\"H\": 1}, \"21\": {\"C\": 1}, \"22\": {\"C\": 1}, \"23\": {\"C\": 1}, \"24\": {\"C\": 1}, \"25\": {\"C\": 1}, \"26\": {\"C\": 1}, \"27\": {\"C\": 1}, \"28\": {\"C\": 1}, \"29\": {\"C\": 1}, \"30\": {\"C\": 1}, \"31\": {\"C\": 1}, \"32\": {\"C\": 1}, \"33\": {\"C\": 1}, \"34\": {\"C\": 1}, \"35\": {\"C\": 1}, \"36\": {\"C\": 1}, \"37\": {\"C\": 1}, \"38\": {\"C\": 1}, \"39\": {\"C\": 1}, \"40\": {\"C\": 1}, \"41\": {\"C\": 1}, \"42\": {\"C\": 1}, \"43\": {\"Br\": 1}, \"44\": {\"Br\": 1}, \"45\": {\"Br\": 1}, \"46\": {\"Br\": 1}, \"47\": {\"N\": 1}, \"48\": {\"N\": 1}, \"49\": {\"N\": 1}, \"50\": {\"N\": 1}, \"51\": {\"N\": 1}, \"52\": {\"N\": 1}, \"53\": {\"N\": 1}, \"54\": {\"N\": 1}, \"55\": {\"N\": 1}, \"56\": {\"N\": 1}, \"57\": {\"N\": 1}, \"58\": {\"N\": 1}, \"59\": {\"O\": 1}, \"60\": {\"O\": 1}}" energy=-397.6702880859375 free_energy=-397.6702880859375 stress="0.0012381098931655288 -0.004060531500726938 0.0011662521865218878 -0.004060531500726938 0.003341975621879101 -0.0016753905219957232 0.0011662521865218878 -0.0016753905219957232 -0.0003933786356355995" pbc="T T T"
Cd       3.68033445       0.00059305      -0.00085052        0      -0.00199665      -0.00000837      -0.00891992
Cd       6.73451783       5.32001971       3.36835224        1       0.33827049      -0.29125983       0.08866769
Cd       3.59651878       2.28835460       9.49007415        2      -0.35306543       0.29916185      -0.06762896
H        6.65651262       3.20218511       0.76875346        3      -0.03945939       0.01507374       0.01199730
H        3.67350425       4.41114243      12.09234292        4      -0.01320443      -0.02190042      -0.02223567
H        0.95955134       1.53313159      12.62703207        5       0.01274620       0.02024066      -0.00394259
H        9.36707776       6.08016741       0.23152697        6       0.00347515      -0.03559574      -0.00226028
H        3.74225384       2.24780077       2.52398654        7      -0.03602612      -0.00103277       0.06279577
H        6.58316450       5.36345983      10.34033474        8       0.10393648      -0.03385718      -0.05760153
H        2.47690525       5.82803733       8.37071623        9      -0.03684738      -0.06496957       0.02978014
H        7.85326912       1.78514348       4.49269638       10       0.06587331      -0.00174394      -0.01620009
H        5.98262606       0.15539383       9.72961589       11       0.03536502      -0.05749832       0.08066624
H        4.34277633       7.45282042       3.13319872       12      -0.02296586       0.06832107      -0.06190668
H        4.29912048       1.90048123       6.36728391       13       0.07169433      -0.03330171      -0.00094239
H        6.02464396       5.71335927       6.49584419       14      -0.00135945      -0.05727677       0.02674280
H        5.32010802       0.20160597       4.87301608       15       0.01996002      -0.02568074       0.01730847
H        5.00608252       7.41119966       7.98880222       16      -0.01746211       0.00850894      -0.07235068
H        4.97221609       3.44470329       4.65358153       17      -0.05553997       0.00939465       0.05291889
H        5.35890156       4.16171793       8.21122762       18       0.06297142       0.00060397      -0.08624885
H        6.35850903       3.26705690       5.45370386       19      -0.07114276       0.07349185      -0.01685483
H        3.96940706       4.33762085       7.40910118       20       0.09961516      -0.05543247      -0.00687840
C        7.64021631       2.96742714       1.16842435       21      -0.04876545      -0.06744745      -0.03828189
C        2.68603901       4.64132532      11.69504282       22       0.16231757       0.00553750      -0.02174333
C        1.08622796       1.98276799       0.60657258       23      -0.03855100      -0.07705124      -0.02064520
C        9.24260666       5.62664477      12.25356909       24      -0.04021435       0.15380310       0.05881165
C        2.74183427       2.46024377       2.14566515       25      -0.01935646      -0.00212869      -0.01856105
C        7.58604416       5.14745990      10.71638332       26      -0.05905765       0.08526590       0.01332021
C        1.90517533       3.40916777       2.75376272       27      -0.06326576      -0.01394773      -0.04608119
C        8.42435375       4.20197738      10.10667495       28       0.05959548      -0.03295852       0.05985361
C        2.23113122       4.10329424       3.99276042       29       0.00878726      -0.06125461       0.02637321
C        8.09855529       3.50830085       8.86866179       30       0.00812262      -0.01012722      -0.07224555
C        9.39406855       5.41943775       5.66540027       31      -0.01501145       0.00982424       0.00576963
C        0.93518236       2.19034373       7.19567788       32       0.03806748       0.06694827       0.05528051
C        8.94027886       6.51915588       6.51380376       33      -0.02822442       0.02588392       0.03059153
C        1.38904825       1.09239205       6.34845436       34       0.00891029      -0.08298582      -0.10494570
C        9.19556966       6.56026583       7.89182140       35      -0.02978285       0.04431956       0.09930025
C        1.13184061       1.04689190       4.97072363       36      -0.01047383       0.10730392      -0.09398677
C        8.59889278       7.55463775       8.65629169       37      -0.04264695      -0.02805515      -0.04606831
C        1.73068248       0.05562741       4.20658821       38       0.01711964      -0.00674523      -0.05677363
C        4.89646661       1.08562142       6.78251017       39      -0.03120190       0.08764502       0.01903802
C        5.43135238       6.52518499       6.07805249       40      -0.00614318      -0.03418396      -0.05422556
C        5.45674118       0.12397356       5.95019031       41       0.00851245      -0.00363303       0.08852944
C        4.87039913       7.48621455       6.90953884       42       0.01179802       0.01717719       0.02547781
Br       5.35791111       0.06751835       2.14820560       43      -0.05519746      -0.01714536       0.03813889
Br       4.97234907       7.53855510      10.71529968       44       0.05718882       0.02584731      -0.04228009
Br       4.95037643       5.43976478       1.29396840       45       0.19548513       0.16918771      -0.06642810
Br       5.38078065       2.16699490      11.56394078       46      -0.20013602      -0.16579792       0.07249810
N        8.05085496       3.68001155       2.22474690       47       0.05168656       0.08412591      -0.07832444
N        2.27755344       3.92846291      10.63644772       48      -0.03822003      -0.04502186       0.12281162
N        2.32429130       1.75229128       1.08408054       49       0.00735906      -0.06417331      -0.03002337
N        8.00382836       5.85831885      11.77583452       50       0.01705320       0.03262225       0.04411897
N        3.23293770       3.79946955       4.84289831       51      -0.02072086      -0.03146316       0.07458840
N        7.09518441       3.81133028       8.01964358       52       0.09156381      -0.01070644      -0.11028559
N        3.09263250       4.62743946       5.91365077       53      -0.05709601      -0.05901390       0.03376447
N        7.23878651       2.98462028       6.94639345       54       0.02568173       0.04740174       0.01227669
N        8.80971337       5.11036062       4.47470219       55       0.06266004       0.05191091      -0.07649885
N        1.52169005       2.49919288       8.38696819       56      -0.16256127       0.01373860       0.05397719
N        5.02231957       1.03557644       8.11730738       57       0.01831220      -0.04153988       0.04782322
N        5.30826183       6.57501180       4.74263315       58      -0.01086579       0.02455118       0.00151348
O        5.96547481       3.41024701       4.54010231       59      -0.12441920      -0.18206459      -0.05876687
O        4.36561271       4.19719519       8.32107603       60       0.08685334       0.16911197       0.10540255
61
Lattice="7.36225017 0.0 0.0 2.7667690779165066 7.459073348248285 0.0 0.20342606519308393 0.15109926434587007 12.86770023256627" Properties=species:S:1:pos:R:3:spacegroup_kinds:I:1:forces:R:3 spacegroup="P 1" unit_cell=conventional occupancy="_JSON {\"0\": {\"Cd\": 1}, \"1\": {\"Cd\": 1}, \"2\": {\"Cd\": 1}, \"3\": {\"H\": 1}, \"4\": {\"H\": 1}, \"5\": {\"H\": 1}, \"6\": {\"H\": 1}, \"7\": {\"H\": 1}, \"8\": {\"H\": 1}, \"9\": {\"H\": 1}, \"10\": {\"H\": 1}, \"11\": {\"H\": 1}, \"12\": {\"H\": 1}, \"13\": {\"H\": 1}, \"14\": {\"H\": 1}, \"15\": {\"H\": 1}, \"16\": {\"H\": 1}, \"17\": {\"H\": 1}, \"18\": {\"H\": 1}, \"19\": {\"H\": 1}, \"20\": {\"H\": 1}, \"21\": {\"C\": 1}, \"22\": {\"C\": 1}, \"23\": {\"C\": 1}, \"24\": {\"C\": 1}, \"25\": {\"C\": 1}, \"26\": {\"C\": 1}, \"27\": {\"C\": 1}, \"28\": {\"C\": 1}, \"29\": {\"C\": 1}, \"30\": {\"C\": 1}, \"31\": {\"C\": 1}, \"32\": {\"C\": 1}, \"33\": {\"C\": 1}, \"34\": {\"C\": 1}, \"35\": {\"C\": 1}, \"36\": {\"C\": 1}, \"37\": {\"C\": 1}, \"38\": {\"C\": 1}, \"39\": {\"C\": 1}, \"40\": {\"C\": 1}, \"41\": {\"C\": 1}, \"42\": {\"C\": 1}, \"43\": {\"Br\": 1}, \"44\": {\"Br\": 1}, \"45\": {\"Br\": 1}, \"46\": {\"Br\": 1}, \"47\": {\"N\": 1}, \"48\": {\"N\": 1}, \"49\": {\"N\": 1}, \"50\": {\"N\": 1}, \"51\": {\"N\": 1}, \"52\": {\"N\": 1}, \"53\": {\"N\": 1}, \"54\": {\"N\": 1}, \"55\": {\"N\": 1}, \"56\": {\"N\": 1}, \"57\": {\"N\": 1}, \"58\": {\"N\": 1}, \"59\": {\"O\": 1}, \"60\": {\"O\": 1}}" energy=-397.68060302734375 free_energy=-397.68060302734375 stress="0.0012652190634980798 -0.004044837784022093 0.0009330084430985153 -0.004044837784022093 0.0033081206493079662 -0.0013679115800186992 0.0009330084430985153 -0.0013679115800186992 -0.00017341968487016857" pbc="T T T"
Cd       3.67986510       0.00121146      -0.00170954        0      -0.00364247       0.00090260      -0.01156845
Cd       6.73738704       5.31721906       3.36776966        1       0.30485719      -0.27223980       0.09342429
Cd       3.59360407       2.29019356       9.48787972        2      -0.33177349       0.28201318      -0.06822546
H        6.65509668       3.20248230       0.76758843        3      -0.04144907       0.00980953       0.00794712
H        3.67215215       4.41064892      12.09067120        4       0.05941557      -0.03974544       0.00416467
H        0.95912508       1.53348345      12.62582031        5      -0.00972781      -0.01331268      -0.04655398
H        9.36723411       6.07986382       0.23057231        6       0.00478690      -0.00372186       0.02671713
H        3.74060832       2.24779142       2.52478734        7      -0.03199703      -0.00095307       0.05591685
H        6.58388525       5.36256541      10.33867387        8       0.01146933      -0.00782209      -0.08502223
H        2.47495323       5.82720719       8.37014137        9      -0.02325548      -0.07105516       0.04529717
H        7.85380824       1.78570447       4.49055666       10       0.02432577       0.04675186      -0.04197478
H        5.98166136       0.15412838       9.72990888       11       0.01409074      -0.04702379      -0.00563391
H        4.34095792       7.45505878       3.13221807       12      -0.01087686       0.05069513      -0.09726924
H        4.29953700       1.90020356       6.36632002       13       0.01748512       0.03662167      -0.02587016
H        6.02530714       5.71106553       6.49572377       14      -0.03983497      -0.00305863      -0.00503473
H        5.31959029       0.20207020       4.87194656       15       0.01892236      -0.02604246       0.02619973
H        5.00338656       7.41254440       7.98596896       16      -0.01163959       0.00610251      -0.03054559
H        4.96969670       3.44433407       4.65297817       17       0.00280538       0.00915255       0.03523543