80
Lattice="8.14150523 0.0 0.0 -2.300096024499511 9.159317594441498 0.0 -0.3791452101883278 -0.09235405904337511 10.740433982107074" Properties=species:S:1:pos:R:3:spacegroup_kinds:I:1:forces:R:3 spacegroup="P 1" unit_cell=conventional occupancy="_JSON {\"0\": {\"Cu\": 1}, \"1\": {\"Cu\": 1}, \"2\": {\"H\": 1}, \"3\": {\"H\": 1}, \"4\": {\"H\": 1}, \"5\": {\"H\": 1}, \"6\": {\"H\": 1}, \"7\": {\"H\": 1}, \"8\": {\"H\": 1}, \"9\": {\"H\": 1}, \"10\": {\"H\": 1}, \"11\": {\"H\": 1}, \"12\": {\"H\": 1}, \"13\": {\"H\": 1}, \"14\": {\"H\": 1}, \"15\": {\"H\": 1}, \"16\": {\"H\": 1}, \"17\": {\"H\": 1}, \"18\": {\"H\": 1}, \"19\": {\"H\": 1}, \"20\": {\"H\": 1}, \"21\": {\"H\": 1}, \"22\": {\"H\": 1}, \"23\": {\"H\": 1}, \"24\": {\"H\": 1}, \"25\": {\"H\": 1}, \"26\": {\"H\": 1}, \"27\": {\"H\": 1}, \"28\": {\"H\": 1}, \"29\": {\"H\": 1}, \"30\": {\"H\": 1}, \"31\": {\"H\": 1}, \"32\": {\"H\": 1}, \"33\": {\"H\": 1}, \"34\": {\"C\": 1}, \"35\": {\"C\": 1}, \"36\": {\"C\": 1}, \"37\": {\"C\": 1}, \"38\": {\"C\": 1}, \"39\": {\"C\": 1}, \"40\": {\"C\": 1}, \"41\": {\"C\": 1}, \"42\": {\"C\": 1}, \"43\": {\"C\": 1}, \"44\": {\"C\": 1}, \"45\": {\"C\": 1}, \"46\": {\"C\": 1}, \"47\": {\"C\": 1}, \"48\": {\"C\": 1}, \"49\": {\"C\": 1}, \"50\": {\"C\": 1}, \"51\": {\"C\": 1}, \"52\": {\"C\": 1}, \"53\": {\"C\": 1}, \"54\": {\"C\": 1}, \"55\": {\"C\": 1}, \"56\": {\"C\": 1}, \"57\": {\"C\": 1}, \"58\": {\"C\": 1}, \"59\": {\"C\": 1}, \"60\": {\"C\": 1}, \"61\": {\"C\": 1}, \"62\": {\"C\": 1}, \"63\": {\"C\": 1}, \"64\": {\"C\": 1}, \"65\": {\"C\": 1}, \"66\": {\"C\": 1}, \"67\": {\"C\": 1}, \"68\": {\"C\": 1}, \"69\": {\"C\": 1}, \"70\": {\"Br\": 1}, \"71\": {\"Br\": 1}, \"72\": {\"N\": 1}, \"73\": {\"N\": 1}, \"74\": {\"N\": 1}, \"75\": {\"N\": 1}, \"76\": {\"O\": 1}, \"77\": {\"O\": 1}, \"78\": {\"O\": 1}, \"79\": {\"O\": 1}}" energy=-516.59765625 free_energy=-516.59765625 stress="-0.005549577996134758 -0.0038815762382000685 -0.000507372198626399 -0.0038815762382000685 2.9314778657862917e-05 0.00043199482024647295 -0.000507372198626399 0.00043199482024647295 0.000626280321739614" pbc="T T T"
Cu       2.91803780       3.85521835       6.88762379        0       0.02854945      -0.07166132       0.10387622
Cu       2.54265606       5.21371622       3.85288908        1      -0.02558935       0.05607964      -0.10495362
H        0.71281337       1.47120786       6.60975392        2      -0.08803419       0.03001113       0.04196446
H        4.75221719       7.59559089       4.13328300        3       0.07232408       0.01057178      -0.04699668
H        0.24230098       2.98274435       9.90714094        4      -0.09326059       0.03227603      -0.18083915
H        5.21673364       6.08557730       0.83282232        5       0.11209373      -0.06034920       0.22672683
H        0.55188225       3.03667573       8.15683476        6      -0.03169519      -0.15027229      -0.13180238
H        4.91159996       6.03440896       2.58472683        7       0.02857552       0.12177404       0.11691196
H        6.07926845       3.06788644       6.54523485        8      -0.08188396       0.09125555       0.04327087
H       -0.61639098       5.99704684       4.19358359        9       0.05805220      -0.11720289       0.00760148
H        6.85204103       1.70269021       7.37875714       10       0.02528568       0.00081924       0.06731840
H       -1.38943547       7.36750078       3.35999716       11       0.02127735      -0.06718055      -0.05066275
H        5.90323772       2.50982118       9.55999997       12      -0.06081541      -0.00263538       0.02432612
H       -0.44146165       6.55585959       1.17987908       13       0.05174859      -0.00634305       0.02156561
H        4.91976698       3.69696273       8.70102730       14      -0.09173785      -0.00183724       0.05678624
H        0.54160303       5.37296708       2.03923856       15       0.09368230      -0.02157216      -0.04854994
H        4.74692057       6.43679434       7.89693347       16       0.08575997       0.01203779      -0.02330199
H        0.71515426       2.62975359       2.84645271       17      -0.03174643      -0.01867389      -0.04073738
H       -1.14956597       4.85909613       7.90373718       18      -0.00793416      -0.00675024       0.08794857
H        6.61060398       4.21103258       2.83640430       19      -0.00097415      -0.04025456      -0.02187771
H       -1.38428529       4.90491526       9.65579983       20       0.05267924       0.01633959      -0.00543864
H        6.84606250       4.16009538       1.08788458       21      -0.05748963      -0.00337466      -0.00599186
H        5.70890800       8.26588601       6.47214612       22      -0.25371078      -0.00015885       0.00192779
H       -0.24459323       0.80400487       4.26679714       23       0.04700071      -0.04433099      -0.03310522
H        1.58805481       6.70710643       6.80595494       24      -0.12513894       0.23611635       0.10639746
H        3.87549809       2.35924743       3.93253858       25       0.04153065      -0.15155126      -0.10008878
H       -0.86785522       6.36324045       6.53120351       26      -0.03182563      -0.06781573       0.08565416
H        6.33146436       2.70686863       4.21059378       27      -0.02721500      -0.11521835      -0.12187935
H        5.27001137       8.48395272       9.24515170       28       0.09941841       0.02074229      -0.00291229
H        0.18684638       0.57800031       1.49353133       29      -0.02166583       0.04600042       0.00562729
H        6.49252660       0.12508853       0.38000965       30       0.03940496       0.05419581       0.02255294
H       -1.03083208       8.94180228      10.36020581       31      -0.01950381       0.04678454       0.04961419
H        2.15085421       7.96606141       0.98893129       32      -0.00871168      -0.07592212      -0.05274401
H        3.31041141       1.10319106       9.75309497       33       0.01063742       0.03322667       0.02151877
C        1.37923569       0.61957013       6.72432953       34       0.29785529      -0.04249386      -0.06604460
C        4.08489854       8.44794049       4.01736423       35      -0.45494848      -0.14636059       0.02906159
C        1.27989808       4.67924269       9.19725107       36      -0.48940492       0.29593766       0.48814377
C        4.18198681       4.38789775       1.54261385       37       0.50982618      -0.24811184      -0.38422003
C        2.74552228       0.80515573       6.90423632       38      -0.57106721      -0.26161915       0.00396237
C        2.71635092       8.25795961       3.83694873       39       0.61731017       0.44005090       0.04485329
C        4.76983531       1.55216806       7.17430118       40       0.22382088      -0.52367663       0.24683836
C        0.69309196       7.51457640       3.56806327       41      -0.47696713       0.50521743      -0.29242671
C        0.24497190       3.63712629       9.01795530       42       0.18423271       0.09942231       0.04590108
C        5.21761257       5.43119653       1.72439285       43      -0.25506586      -0.08243883      -0.12676194
C        2.97980278       6.02909244       9.07276024       44       0.48181874       0.46274418       0.13170972
C        2.48250905       3.03901616       1.66565552       45      -0.51442671      -0.47037271      -0.04613384
C        1.31071866       8.86087443       6.97028075       46       0.01108393      -0.06702888       0.03698931
C        4.14934783       0.20386905       3.77342951       47       0.05943399       0.15008536      -0.07388925
C        5.97849911       2.36801875       7.39004196       48      -0.02763557       0.14151734       0.07270275
C       -0.51734775       6.69621138       3.35063157       49       0.03600281       0.04743709      -0.05012600
C        2.16757728       6.45112038      10.13756031       50      -0.15258968      -0.20134148       0.00996734
C        3.29659100       2.61816473       0.60506325       51       0.05254379      -0.05448358      -0.18641329
C        5.88916381       3.18602119       8.69308097       52      -0.03826842      -0.10588581      -0.35962346
C       -0.42863601       5.88181167       2.05040983       53       0.05127683       0.07989763       0.20723790
C        4.12660452       6.74145531       8.73862608       54      -0.34870172      -0.18095268      -0.01379364
C        1.33571146       2.32538857       2.00139824       55       0.26095667       0.19140089       0.10628819
C       -1.15276335       4.23794995       8.81530923       56       0.18567035       0.01263142      -0.00788187
C        6.61305107       4.82950319       1.92592992       57      -0.12536930       0.02684382      -0.01592442
C       -1.37613579       8.45560559       6.62407376       58       0.08214612      -0.13118415       0.01988835
C        6.83427816       0.61081594       4.11371104       59       0.30466551       0.18212277       0.04757094
C        0.89219873       7.55062751       6.83457008       60       0.09517280       0.00303304      -0.06333054
C        4.56672303       1.51687922       3.90553209       61       0.09274407      -0.18819937       0.07273110
C       -0.48670581       7.37049897       6.67253590       62      -0.17054962       0.17429014      -0.08147506
C        5.94924915       1.69400813       4.06614690       63       0.00782854       0.11438704       0.09449346
C        4.40020914       7.88440237       9.50376751       64       0.07520816       0.20424612       0.05014753
C        1.05877775       1.18155509       1.24030403       65      -0.05319777      -0.21721396      -0.09364136
C        3.57061062       8.29027330      10.55946394       66       0.07133308      -0.01234166      -0.11027718
C        1.89241886       0.77896506       0.18456954       67      -0.24786144      -0.23424491       0.03231333
C        2.79848012       7.66170121       0.16612481       68       0.13225444       0.12984316       0.05733459
C        2.66104663       1.40171281      10.57521855       69       0.03975563       0.19479749       0.08126661
Br       0.88813443       3.95680984       5.31009723       70       0.08829243       0.05240980       0.01187487
Br       4.57403647       5.10988508       5.43145427       71      -0.08889338      -0.05162092      -0.01329257
N        3.52511864       1.97358049       7.03091403       72       0.13184229       0.31999597      -0.05635936
N        1.93372471       7.09371648       3.71277891       73       0.03684407      -0.43890524       0.06600150
N        2.37518122       4.89173329       8.49310578       74      -0.01180023      -0.28527874      -0.23594938
N        3.08819098       4.17399293       2.24999422       75       0.03309703       0.30293757       0.17049971
O        4.89715754       0.18755282       7.14077617       76       0.29146147       0.38591272       0.03882618
O        0.56311250       8.87873634       3.59845074       77      -0.25735044      -0.40329847      -0.01324113
O        1.09215582       5.57993954      10.21455197       78      -0.28547695      -0.37334383      -0.28220233
O        4.37126303       3.48595935       0.52670392       79       0.30600840       0.41811073       0.28669602
80
Lattice="8.14150523 0.0 0.0 -2.300096024499511 9.159317594441498 0.0 -0.3791452101883278 -0.09235405904337511 10.740433982107074" Properties=species:S:1:pos:R:3:spacegroup_kinds:I:1:forces:R:3 spacegroup="P 1" unit_cell=conventional occupancy="_JSON {\"0\": {\"Cu\": 1}, \"1\": {\"Cu\": 1}, \"2\": {\"H\": 1}, \"3\": {\"H\": 1}, \"4\": {\"H\": 1}, \"5\": {\"H\": 1}, \"6\": {\"H\": 1}, \"7\": {\"H\": 1}, \"8\": {\"H\": 1}, \"9\": {\"H\": 1}, \"10\": {\"H\": 1}, \"11\": {\"H\": 1}, \"12\": {\"H\": 1}, \"13\": {\"H\": 1}, \"14\": {\"H\": 1}, \"15\": {\"H\": 1}, \"16\": {\"H\": 1}, \"17\": {\"H\": 1}, \"18\": {\"H\": 1}, \"19\": {\"H\": 1}, \"20\": {\"H\": 1}, \"21\": {\"H\": 1}, \"22\": {\"H\": 1}, \"23\": {\"H\": 1}, \"24\": {\"H\": 1}, \"25\": {\"H\": 1}, \"26\": {\"H\": 1}, \"27\": {\"H\": 1}, \"28\": {\"H\": 1}, \"29\": {\"H\": 1}, \"30\": {\"H\": 1}, \"31\": {\"H\": 1}, \"32\": {\"H\": 1}, \"33\": {\"H\": 1}, \"34\": {\"C\": 1}, \"35\": {\"C\": 1}, \"36\": {\"C\": 1}, \"37\": {\"C\": 1}, \"38\": {\"C\": 1}, \"39\": {\"C\": 1}, \"40\": {\"C\": 1}, \"41\": {\"C\": 1}, \"42\": {\"C\": 1}, \"43\": {\"C\": 1}, \"44\": {\"C\": 1}, \"45\": {\"C\": 1}, \"46\": {\"C\": 1}, \"47\": {\"C\": 1}, \"48\": {\"C\": 1}, \"49\": {\"C\": 1}, \"50\": {\"C\": 1}, \"51\": {\"C\": 1}, \"52\": {\"C\": 1}, \"53\": {\"C\": 1}, \"54\": {\"C\": 1}, \"55\": {\"C\": 1}, \"56\": {\"C\": 1}, \"57\": {\"C\": 1}, \"58\": {\"C\": 1}, \"59\": {\"C\": 1}, \"60\": {\"C\": 1}, \"61\": {\"C\": 1}, \"62\": {\"C\": 1}, \"63\": {\"C\": 1}, \"64\": {\"C\": 1}, \"65\": {\"C\": 1}, \"66\": {\"C\": 1}, \"67\": {\"C\": 1}, \"68\": {\"C\": 1}, \"69\": {\"C\": 1}, \"70\": {\"Br\": 1}, \"71\": {\"Br\": 1}, \"72\": {\"N\": 1}, \"73\": {\"N\": 1}, \"74\": {\"N\": 1}, \"75\": {\"N\": 1}, \"76\": {\"O\": 1}, \"77\": {\"O\": 1}, \"78\": {\"O\": 1}, \"79\": {\"O\": 1}}" energy=-516.6234741210938 free_energy=-516.6234741210938 stress="-0.005259902682155371 -0.0035000485368072987 -0.0005882218829356134 -0.0035000485368072987 -0.000403606885811314 0.0004103012615814805 -0.0005882218829356134 0.0004103012615814805 0.0006623654044233263" pbc="T T T"
Cu       2.91812269       3.85238203       6.88700879        0       0.02550998      -0.06567752       0.11053620
Cu       2.54125764       5.21379123       3.85062893        1      -0.02291773       0.06089076      -0.09794004
H        0.71376745       1.47117675       6.61163324        2      -0.07435938       0.00301558       0.03956244
H        4.75335310       7.59718742       4.13067096        3       0.06083703      -0.03085053      -0.05109093
H        0.24253372       2.98367409       9.90455380        4      -0.08678369       0.02010791      -0.16545737
H        5.21921785       6.08767374       0.83502280        5       0.09334261      -0.02930616       0.15693060
H        0.55104550       3.03541567       8.15681095        6      -0.00347032      -0.15423313      -0.18263711
H        4.91220562       6.03549846       2.58749646        7       0.03833538       0.04400326       0.01476338
H        6.07774187       3.06669395       6.54565825        8      -0.06975396       0.16285264      -0.04184484
H       -0.61876012       5.99735029       4.19652443        9       0.07501502      -0.11175948      -0.00984740
H        6.84924410       1.70093530       7.37871580       10       0.02531435       0.03706871       0.05677177
H       -1.38858174       7.36482707       3.36284829       11      -0.05421858      -0.02190859      -0.06441794
H        5.90264763       2.50988366       9.56238185       12      -0.04208937       0.03785979      -0.06200909
H       -0.43982493       6.55876275       1.18055355       13       0.04663965      -0.06329938       0.09326938
H        4.91827119       3.69627698       8.70257214       14       0.00233797      -0.03398536       0.04735250
H        0.54021189       5.37191352       2.03913239       15       0.12730624      -0.02117123      -0.03462643
H        4.74649921       6.43414409       7.89514052       16       0.00823764       0.06346609       0.07804895
H        0.71434675       2.62736602       2.84470860       17      -0.03342324       0.01452767      -0.01372527
H       -1.14934627       4.86166093       7.90574673       18      -0.01106336      -0.00721197       0.09633885
H        6.60853856       4.21000612       2.83700638       19       0.00055436      -0.03554495      -0.03629339
H       -1.38571030       4.90214111       9.65612059       20       0.04887378       0.07691527       0.07567669
H        6.84398641       4.15943881       1.08664570       21      -0.03675067      -0.00537547      -0.00086730
H        5.70748701       8.26393485       6.47208750       22      -0.19929579       0.02005526       0.00915233
H       -0.24375223       0.80105517       4.26727875       23       0.12268889      -0.01623886      -0.01969172
H        1.58781510       6.70989154       6.80499055       24      -0.09497404       0.19009054       0.10585913
H        3.87403834       2.35710418       3.93228041       25       0.07103669      -0.18954344      -0.11312588
H       -0.86577672       6.36596260       6.53351348       26      -0.06636192      -0.12819025       0.07430378
H        6.32909984       2.70485979       4.20880255       27       0.00294069       0.01476625      -0.09064543
H        5.26852886       8.48537088       9.24325148       28       0.15454888       0.05295417      -0.02060594
H        0.18752553       0.57562833       1.49606518       29       0.02176900       0.08041678       0.00325128
H        6.49298999       0.12765545       0.37709082       30       0.03466416       0.02980904       0.02612434
H       -1.02793301       8.94118308      10.35917098       31      -0.03908939       0.05291759       0.05603119
H        2.15013249       7.96605866       0.98928929       32       0.01157637      -0.09196992      -0.08825296
H        3.31180596       1.10481158       9.75336846       33       0.00935189       0.02004384      -0.00094010
C        1.37995306       0.61788533       6.72445824       34       0.20012622       0.04424573      -0.07150934
C        4.08214138       8.44535434       4.01473552       35      -0.26142281       0.12517518       0.08919832
C        1.27900422       4.68095272       9.19957299       36      -0.39058205       0.22339445       0.33375022
C        4.18343060       4.38588004       1.54066604       37       0.38559502      -0.16143623      -0.25177324
C        2.74325762       0.80372140       6.90528578       38      -0.38372403      -0.17248309       0.00590792
C        2.71556181       8.26019030       3.83809836       39       0.58074999       0.19679505      -0.00178155
C        4.77101739       1.55058670       7.17601856       40       0.16589931      -0.41270232       0.20708162
C        0.69030543       7.51668426       3.56791704       41      -0.29009163       0.33818170      -0.26114148
C        0.24753275       3.63747422       9.01551267       42       0.07483473       0.13985941       0.13836543
C        5.21490529       5.43140343       1.72177829       43      -0.12948591      -0.06247139       0.06420825
C        2.98219822       6.03194299       9.07160097       44       0.25707442       0.21314144       0.11257011
C        2.48005299       3.03635316       1.66435686       45      -0.22497189      -0.21597633      -0.03409778
C        1.31135051       8.86192876       6.97063584       46       0.00851858      -0.09972161       0.03927156
C        4.15151001       0.20473637       3.77189579       47      -0.07679589       0.01345727      -0.07551967
C        5.97778254       2.37071764       7.38875800       48       0.01703405      -0.01870085       0.16014019
C       -0.51864397       6.69489982       3.35163589       49       0.08100951       0.05054998       0.00895010
C        2.17005905       6.44887792      10.13567729       50      -0.26701713      -0.09096410       0.16012147
C        3.29899990       2.61545767       0.60356653       51      -0.04331632       0.08838248      -0.02089801
C        5.89187383       3.18594673       8.69144407       52      -0.18190587      -0.08166426      -0.23779763
C       -0.42800355       5.88257621       2.05320483       53      -0.01958421       0.05982861       0.07415292
C        4.12406404       6.74341805       8.73939684       54      -0.09350395      -0.17309295      -0.21239927
C        1.33692987       2.32805285       2.00059446       55       0.12371758       0.03288251       0.12107586
C       -1.15223806       4.23959795       8.81704436       56       0.22704712      -0.08156276      -0.12923214
C        6.61316394       4.82787234       1.92578388       57      -0.17620370       0.10464212      -0.01699667
C       -1.37587682       8.45491287       6.62345461       58      -0.06570786      -0.10042966       0.01779086
C        6.83701401       0.61229857       4.11522433       59       0.02904142       0.05010396      -0.00117103
C        0.89349433       7.55241429       6.83392808       60      -0.03062704       0.02815007      -0.06031291
C        4.56712005       1.51420531       3.90272565       61       0.04292889       0.01994759       0.11360797
C       -0.48915245       7.37299213       6.67334993       62       0.06197347       0.12228790      -0.07072982
C        5.94759687       1.69565055       4.06849386       63       0.13237694      -0.11040261       0.05553710
C        4.40109465       7.88646901       9.50249190       64       0.01127324       0.16494156       0.09198058
C        1.06042880       1.18067504       1.24264017       65      -0.10020915      -0.25623283      -0.15441279
C        3.57302368       8.28963866      10.55965961       66      -0.00736969       0.01188232      -0.09608983
C        1.89023812       0.77979062       0.18351760       67      -0.17058571      -0.20469442       0.04961571
C        2.79773905       7.66156775       0.16495619       68       0.18961737       0.10826616       0.03862120
C        2.66108461       1.40359135      10.57362551       69      -0.00346924       0.09428160       0.05249198
Br       0.88769978       3.95633251       5.31020039       70       0.08510937       0.05145326       0.01166647
Br       4.57160585       5.11049652       5.43025143       71      -0.08275169      -0.05252383      -0.01113635
N        3.52695119       1.97278569       7.02909759       72       0.04899028       0.30952290      -0.03735780
N        1.93265705       7.09122098       3.71276120       73      -0.03679830      -0.25964424       0.06521453
N        2.37449838       4.89015422       8.49095045       74      -0.01764429      -0.17001623      -0.12620431
N        3.08976333       4.17652988       2.25220417       75      -0.01306206       0.11174215       0.01775843
O        4.89817525       0.19051882       7.14192430       76       0.29266506       0.27290606       0.04602422
O        0.56382393       8.87584547       3.59851237       77      -0.29695112      -0.26089311      -0.02556145
O        1.08977387       5.57797886      10.21518557       78      -0.15412140      -0.29057023      -0.29910970
O        4.37140527       3.48681760       0.52950269       79       0.35599142       0.32466578       0.17017668
80
Lattice="8.14150523 0.0 0.0 -2.300096024499511 9.159317594441498 0.0 -0.3791452101883278 -0.09235405904337511 10.740433982107074" Properties=species:S:1:pos:R:3:spacegroup_kinds:I:1:forces:R:3 spacegroup="P 1" unit_cell=conventional occupancy="_JSON {\"0\": {\"Cu\": 1}, \"1\": {\"Cu\": 1}, \"2\": {\"H\": 1}, \"3\": {\"H\": 1}, \"4\": {\"H\": 1}, \"5\": {\"H\": 1}, \"6\": {\"H\": 1}, \"7\": {\"H\": 1}, \"8\": {\"H\": 1}, \"9\": {\"H\": 1}, \"10\": {\"H\": 1}, \"11\": {\"H\": 1}, \"12\": {\"H\": 1}, \"13\": {\"H\": 1}, \"14\": {\"H\": 1}, \"15\": {\"H\": 1}, \"16\": {\"H\": 1}, \"17\": {\"H\": 1}, \"18\": {\"H\": 1}, \"19\": {\"H\": 1}, \"20\": {\"H\": 1}, \"21\": {\"H\": 1}, \"22\": {\"H\": 1}, \"23\": {\"H\": 1}, \"24\": {\"H\": 1}, \"25\": {\"H\": 1}, \"26\": {\"H\": 1}, \"27\": {\"H\": 1}, \"28\": {\"H\": 1}, \"29\": {\"H\": 1}, \"30\": {\"H\": 1}, \"31\": {\"H\": 1}, \"32\": {\"H\": 1}, \"33\": {\"H\": 1}, \"34\": {\"C\": 1}, \"35\": {\"C\": 1}, \"36\": {\"C\": 1}, \"37\": {\"C\": 1}, \"38\": {\"C\": 1}, \"39\": {\"C\": 1}, \"40\": {\"C\": 1}, \"41\": {\"C\": 1}, \"42\": {\"C\": 1}, \"43\": {\"C\": 1}, \"44\": {\"C\": 1}, \"45\": {\"C\": 1}, \"46\": {\"C\": 1}, \"47\": {\"C\": 1}, \"48\": {\"C\": 1}, \"49\": {\"C\": 1}, \"50\": {\"C\": 1}, \"51\": {\"C\": 1}, \"52\": {\"C\": 1}, \"53\": {\"C\": 1}, \"54\": {\"C\": 1}, \"55\": {\"C\": 1}, \"56\": {\"C\": 1}, \"57\": {\"C\": 1}, \"58\": {\"C\": 1}, \"59\": {\"C\": 1}, \"60\": {\"C\": 1}, \"61\": {\"C\": 1}, \"62\": {\"C\": 1}, \"63\": {\"C\": 1}, \"64\": {\"C\": 1}, \"65\": {\"C\": 1}, \"66\": {\"C\": 1}, \"67\": {\"C\": 1}, \"68\": {\"C\": 1}, \"69\": {\"C\": 1}, \"70\": {\"Br\": 1}, \"71\": {\"Br\": 1}, \"72\": {\"N\": 1}, \"73\": {\"N\": 1}, \"74\": {\"N\": 1}, \"75\": {\"N\": 1}, \"76\": {\"O\": 1}, \"77\": {\"O\": 1}, \"78\": {\"O\": 1}, \"79\": {\"O\": 1}}" energy=-516.6350708007812 free_energy=-516.6350708007812 stress="-0.00522298738360405 -0.0035396588500589132 -0.000526120827998966 -0.0035396588500589132 -0.00019041016639675945 0.000511971244122833 -0.000526120827998966 0.000511971244122833 0.00020391459111124277" pbc="T T T"
Cu       2.91639633       3.85099130       6.88645496        0       0.02964350      -0.05641598       0.11881457
Cu       2.53875577       5.21627536       3.85187503        1      -0.00725565       0.04942464      -0.11569484
H        0.71455043       1.47104106       6.61284425        2      -0.14862283       0.08662634       0.02669277
H        4.75507325       7.59464190       4.13118115        3       0.01436567       0.01287223      -0.05387188
H        0.23971433       2.98169285       9.90216337        4      -0.08790360      -0.00747054      -0.09940530
H        5.21915947       6.08528562       0.83691640        5       0.08444049      -0.00342512       0.10301934
H        0.55172463       3.03273954       8.15737137        6      -0.01477959      -0.10662413      -0.14030179
H        4.91220234       6.03658045       2.58736931        7       0.03717807      -0.00934836      -0.03415047
H        6.07652917       3.06968135       6.54651021        8      -0.07528508       0.10782976       0.00400575
H       -0.62015576       5.99892721       4.19754176        9       0.10181683      -0.09360410      -0.03954592
H        6.84705028       1.69813541       7.37600825       10       0.06335042       0.05786441       0.07197529
H       -1.38838101       7.36212906       3.36133841       11      -0.05697716      -0.00650061      -0.06649800
H        5.90129928       2.50986673       9.56020248       12      -0.02603398       0.00250939      -0.00794145
H       -0.44254154       6.55889208       1.18195500       13       0.06694765      -0.04893339       0.08449577
H        4.91628996       3.69454957       8.70541922       14       0.04326862      -0.05015174       0.02746205
H        0.54169518       5.36962483       2.04024228       15       0.03451710       0.03289536      -0.04099240
H        4.74601573       6.43245089       7.89772654       16      -0.00101811       0.06903732       0.08365188
H        0.71278498       2.62602585       2.84643239       17      -0.00111419       0.01280710      -0.06427628
H       -1.15218162       4.86197570       7.90846498       18      -0.00071513       0.02577104       0.00889424
H        6.61012632       4.21246189       2.83435900       19      -0.01129039      -0.07889532       0.02759567
H       -1.38493515       4.90170572       9.65622407       20       0.04864578       0.02495586       0.01995350
H        6.84214276       4.15875734       1.08474215       21      -0.03903084       0.06559075       0.07226799
H        5.70555775       8.26207352       6.47362466       22      -0.13456413       0.04325160       0.01135892
H       -0.24657073       0.80039457       4.26467691       23       0.21128714       0.00690262       0.00052967
H        1.58670535       6.71156289       6.80546515       24      -0.05493496       0.13341057       0.09417042
H        3.87599674       2.35463783       3.93026102       25      -0.04728119      -0.05444176      -0.10158197
H       -0.86507466       6.36346906       6.53565796       26      -0.06171321      -0.10098688       0.07685841
H        6.32719774       2.70637699       4.20867551       27       0.01467694       0.01499136      -0.08313368
H        5.27087115       8.48353288       9.24419341       28       0.18246815       0.07292508      -0.02277137
H        0.19030388       0.57785109       1.49594127       29      -0.04786135       0.03662368       0.01306917
H        6.49505884       0.12563764       0.37654343       30       0.02926760       0.07663462       0.04948854
H       -1.02972909       8.94383904      10.35828943       31      -0.03115326       0.00993572       0.04094563
H        2.15081686       7.96816043       0.98675842       32      -0.00875041      -0.07537427      -0.04909978
H        3.31355850       1.10355658       9.75214504       33      -0.11042912       0.07732909       0.14273122
C        1.37842552       0.62022771       6.72529144       34       0.26842603      -0.06659335      -0.08326632
C        4.08122154       8.44304881       4.01626568       35      -0.09671937       0.27627185       0.10739973
C        1.27710657       4.68319538       9.20233108       36      -0.32861331       0.03979887       0.15233561
C        4.18624780       4.38368132       1.53949955       37       0.23289107      -0.11374651      -0.11468004
C        2.74161330       0.80633386       6.90537813       38      -0.22212821      -0.28413352       0.03871774
C        2.71692304       8.26200230       3.83870335       39       0.51369625       0.00825928      -0.02186122
C        4.77294854       1.54774374       7.17841523       40       0.10257004      -0.30164889       0.16409060
C        0.68850486       7.51936445       3.56585244       41      -0.06301616       0.18918115      -0.21584427
C        0.24579107       3.63621790       9.01667258       42       0.11973153       0.18136376       0.01965191
C        5.21371503       5.42848006       1.72121097       43      -0.08529501       0.07320222       0.16831829
C        2.98238161       6.03379852       9.07302088       44       0.15005606       0.07891202       0.07967945
C        2.47808176       3.03443844       1.66365504       45      -0.05381334      -0.00319271       0.01491602
C        1.31254472       8.86161048       6.97349523       46      -0.18515421      -0.05937669      -0.04086515