90
Lattice="6.69808883 0.0 0.0 1.989741221035817 12.938476333785607 0.0 -0.173928901686895 0.08232205702577453 17.239903354179905" Properties=species:S:1:pos:R:3:spacegroup_kinds:I:1:forces:R:3 spacegroup="P 1" unit_cell=conventional occupancy="_JSON {\"0\": {\"Al\": 1}, \"1\": {\"Al\": 1}, \"2\": {\"Al\": 1}, \"3\": {\"Al\": 1}, \"4\": {\"H\": 1}, \"5\": {\"H\": 1}, \"6\": {\"H\": 1}, \"7\": {\"H\": 1}, \"8\": {\"H\": 1}, \"9\": {\"H\": 1}, \"10\": {\"H\": 1}, \"11\": {\"H\": 1}, \"12\": {\"H\": 1}, \"13\": {\"H\": 1}, \"14\": {\"H\": 1}, \"15\": {\"H\": 1}, \"16\": {\"H\": 1}, \"17\": {\"H\": 1}, \"18\": {\"H\": 1}, \"19\": {\"H\": 1}, \"20\": {\"C\": 1}, \"21\": {\"C\": 1}, \"22\": {\"C\": 1}, \"23\": {\"C\": 1}, \"24\": {\"C\": 1}, \"25\": {\"C\": 1}, \"26\": {\"C\": 1}, \"27\": {\"C\": 1}, \"28\": {\"C\": 1}, \"29\": {\"C\": 1}, \"30\": {\"C\": 1}, \"31\": {\"C\": 1}, \"32\": {\"C\": 1}, \"33\": {\"C\": 1}, \"34\": {\"C\": 1}, \"35\": {\"C\": 1}, \"36\": {\"C\": 1}, \"37\": {\"C\": 1}, \"38\": {\"C\": 1}, \"39\": {\"C\": 1}, \"40\": {\"C\": 1}, \"41\": {\"C\": 1}, \"42\": {\"C\": 1}, \"43\": {\"C\": 1}, \"44\": {\"C\": 1}, \"45\": {\"C\": 1}, \"46\": {\"C\": 1}, \"47\": {\"C\": 1}, \"48\": {\"C\": 1}, \"49\": {\"C\": 1}, \"50\": {\"C\": 1}, \"51\": {\"C\": 1}, \"52\": {\"O\": 1}, \"53\": {\"O\": 1}, \"54\": {\"O\": 1}, \"55\": {\"O\": 1}, \"56\": {\"O\": 1}, \"57\": {\"O\": 1}, \"58\": {\"O\": 1}, \"59\": {\"O\": 1}, \"60\": {\"O\": 1}, \"61\": {\"O\": 1}, \"62\": {\"O\": 1}, \"63\": {\"O\": 1}, \"64\": {\"O\": 1}, \"65\": {\"O\": 1}, \"66\": {\"O\": 1}, \"67\": {\"O\": 1}, \"68\": {\"O\": 1}, \"69\": {\"O\": 1}, \"70\": {\"O\": 1}, \"71\": {\"O\": 1}, \"72\": {\"O\": 1}, \"73\": {\"O\": 1}, \"74\": {\"O\": 1}, \"75\": {\"O\": 1}, \"76\": {\"O\": 1}, \"77\": {\"O\": 1}, \"78\": {\"O\": 1}, \"79\": {\"O\": 1}, \"80\": {\"O\": 1}, \"81\": {\"O\": 1}, \"82\": {\"F\": 1}, \"83\": {\"F\": 1}, \"84\": {\"F\": 1}, \"85\": {\"F\": 1}, \"86\": {\"F\": 1}, \"87\": {\"F\": 1}, \"88\": {\"F\": 1}, \"89\": {\"F\": 1}}" energy=-618.879150390625 free_energy=-618.879150390625 stress="-0.00032914680195972323 -2.9666627597180195e-05 0.0014440573286265135 -2.9666627597180195e-05 0.0029477067291736603 0.0005382195231504738 0.0014440573286265135 0.0005382195231504738 0.0019187568686902523" pbc="T T T"
Al       1.70160128       6.41926364       8.61782064        0      -0.33319220       0.06036258       0.37284446
Al       5.03699023       6.37514432       8.61954494        1       0.54796898       0.52406681       0.39792722
Al       5.21311089       0.08031085       0.05995109        2       0.64371353      -0.41022688       0.15963897
Al       1.89780520       0.09643404       0.02448113        3      -0.68182003      -0.59337890       0.44255200
H        1.74163357       3.57327035       2.56179051        4      -1.60003853       0.20440371      -1.55322385
H        1.66752508       3.64625049      14.75710860        5      -0.99553829       0.22553346       0.76021266
H        6.72672518      11.07777001       2.52582631        6       0.30213392       1.75489068      -2.27988482
H        5.77985512       9.78594526      13.55578267        7      -0.05369807      -0.00806878       0.07350232
H        3.06694541       9.39473526       4.90787419        8       0.54858434       0.36424756      -0.63439715
H        2.97975270       9.44121182      12.53350219        9      -0.12657468      -0.03030079      -0.00470565
H        4.18767914      10.74358595       3.06839930       10       0.02072936       0.07636188      -0.15810317
H        3.88437137      10.91061062      14.47618593       11      -0.57433164      -0.75026977      -0.80082452
H        5.58564912       0.07367189       5.82902347       12       0.01245887       0.05787355       0.77068561
H        5.54731678       0.18981050      11.51894555       13       0.24774200      -0.30336300      -2.25698328
H        6.28668293       4.24836618       6.41031983       14       0.10303390      -0.40775841      -0.19034393
H        6.37383937       4.19470806      10.74772068       15      -0.10663565       0.31237587      -0.07120143
H        3.35846086       7.96269161       7.96764242       16       0.13409920      -0.68873858       0.63850570
H        6.78879984       4.58674690       8.46547872       17      -0.11866264       1.66142511       0.43388197
H        5.41134968      11.44015596      16.80489102       18      -0.02304123      -0.21478441      -0.09106687
H        6.72677060       1.67523941      16.56797171       19      -0.05538390      -0.56280595       0.61154962
C        3.37490987       4.84698102       6.79982994       20      -0.10543828      -0.61373168      -1.57883358
C        3.33606798       4.96636453      10.53294020       21       0.91725457      -0.32523319       0.52161312
C        6.72836983       7.95370839      10.47121514       22      -0.24159579      -1.06195104      -0.84320015
C        6.72898755       7.95018433       6.79913552       23      -0.36538798      -0.09964661      -0.32129493
C        6.75854214       8.78965577       5.61550725       24      -2.32403636       0.71201348      -0.52137208
C        6.71613597       8.72340560      11.67764654       25      -0.49890998       1.21228242       1.84356976
C        7.86399878       9.29175625       4.95914818       26      -1.39930928       1.46197844      -1.94573045
C        7.78681102       9.22133278      12.42511330       27       0.06975891       0.84185821       0.61424518
C        2.23415330      10.61059413       3.11104158       28       1.25667894      -0.78414059       0.92278123
C        2.03440593      10.59036931      14.31414714       29      -0.13434006      -0.28107467      -0.09528543
C        7.76215994      10.17812678       3.73599436       30      -0.11876392      -0.88431674       1.01426411
C        7.65060014      10.04248438      13.66629998       31      -2.35735512      -0.94670665      -0.67907608
C        4.38467312       3.14091370       5.29115940       32       0.02378020      -0.79112130      -1.86544597
C        4.31320737       3.24627309      12.04198135       33       0.85589612      -1.62342787       0.78850776
C        3.39506824       4.06559982       5.48941080       34      -0.78307968       1.15273297       1.17301512
C        3.33059132       4.20105361      11.84736549       35       1.30640388       0.49722564      -2.41464210
C        2.42689611       4.23319731       4.46036516       36       2.28529787      -2.68643594      -1.25037801
C        2.42186910       4.34483438      12.85173693       37      -0.21888788      -1.66924071       2.55146360
C        2.47836816       3.44030690       3.27271301       38       2.13024807      -0.21909717       2.61741376
C        2.41467988       3.51172949      14.02554110       39       1.46773958       0.28548503      -1.95590234
C        3.49841238       2.45602377       3.09043608       40       0.22071779       1.00123239       0.11150189
C        3.40214933       2.52916409      14.21482740       41       0.50487810       0.15273091      -0.90479732
C        4.48064733       2.37684330       4.08636398       42      -0.62414914      -0.10315958       0.73191786
C        4.38611139       2.41966349      13.17965249       43      -0.62453926       0.36313915       0.84169883
C        5.65126862       1.57472732       4.59784858       44       1.21000719      -0.16660941       0.41360313
C        5.61389926       1.62981678      12.74136136       45      -0.12593497       0.83981287      -0.92832863
C        5.61441057       2.53660808       5.88987784       46      -0.58669823      -0.48954982       1.08118916
C        5.53854277       2.59179296      11.40397345       47       0.34515008       0.02829999      -0.19262132
C        3.37427454       1.66446498      15.43627803       48       2.11716747       1.09435344      -1.39369512
C        3.55286680       1.64210743       1.84213845       49      -0.34283486      -0.39975819       0.68789995
C        2.21374444      11.45808066       1.95603990       50      -1.08344150       0.84514832      -0.66931105
C        1.96151323      11.41303865      15.50017916       51       0.02406614       0.93568373       1.34492779
O        4.51433583       5.14528848       9.99406870       52      -1.46971905      -0.20920891       0.61044085
O        4.52351425       5.13557501       7.25379696       53       0.71734381      -0.02818149       0.19876841
O        2.25998845       5.14033634       7.29014934       54      -0.55633521       0.10421111       0.30664673
O        2.21303759       5.30494898      10.07746130       55       0.39151686      -0.06397445      -0.15483466
O        1.14904830       7.59027116       7.26845752       56       0.54260558      -0.19581163       0.15057313
O        1.16172103       7.65180577       9.94131807       57      -0.62865788       0.45787263       0.41965765
O        3.38510681       7.18282101       8.58492250       58      -0.11669569       0.98066163      -0.82880163
O        5.56703743       7.58013854      10.06192444       59       0.27966398      -0.15664011      -0.46751612
O        5.57558088       7.61933990       7.23860590       60      -0.20459479      -0.34299275       0.43855456
O        6.73701531       5.57345489       8.67815317       61      -0.08966448      -1.84777021      -0.56812555
O        2.41860117       1.31930632       1.36805680       62       0.03959960       0.05903447      -0.32398325
O        2.26332814       1.41039034      15.91090322       63      -1.87060189      -0.72983092       0.92632830
O        4.52628435       1.32626041      15.87473035       64      -0.01421378      -0.26221547       0.21079555
O        4.69097875       1.25939204       1.42839329       65      -0.12115545       0.38674876      -0.03029904
O        7.56099767      11.71342756      16.06628590       66       0.05925390      -0.15485021      -0.59600788
O        7.77226726      11.85043170       1.48191563       67      -0.29372519      -0.38528615       0.40825599
O        5.53361972      12.19522674       0.04459363       68       0.04201818       0.08600014       0.13518138
O        3.30587939      11.81404930       1.46102906       69       1.74549842       0.47244653      -0.69609511
O        3.12383098      11.79371218      15.93774288       70       0.38048539       0.06949645      -0.20634486
O        0.03657977       0.93836077      17.23015599       71      -0.13592462       0.93983102      -0.88289738
O        6.54018511      10.51980393       3.26508969       72      -0.04557145      -1.80351830       2.32973528
O        6.38366279      10.22511243      14.20560842       73       1.04711497      -0.16617438      -0.58598876
O        2.33732628       8.99034703       5.42563356       74       1.34505773      -0.60993570       0.95522118
O        2.30311431       9.00558835      11.93841078       75       0.92012316      -0.04807296      -0.05821815
O        3.50722284      10.25833623       3.56908382       76      -1.85823655      -0.08855409       0.19343567
O        3.28429667      10.35155906      13.86881439       77       1.13260567       0.56730020       0.34037140
O        5.50453418       0.21647967       4.87898143       78      -0.09541745       1.02891922      -1.35493731
O        5.42453927       0.30762012      12.43998985       79      -0.02933419       0.38674515       2.68698931
O        6.65986755       3.35745133       6.15276305       80      -0.13200431       0.07615396       0.07371366
O        6.64765836       3.35155220      11.16805254       81      -0.26261967      -0.45598537       0.28194925
F        5.28184284       1.73273470       7.04288955       82       0.40419441       0.54111797      -0.86049062
F        5.25620850       1.78768900      10.26264437       83      -0.01361611       0.41821223       0.82089424
F        5.46944617       9.14006097       5.17407062       84       2.08736300      -0.44624907       0.45272934
F        5.45059794       8.99924797      12.19724333       85       0.73363853      -0.30713600      -0.54105258
F        1.50408998       5.14396279       4.53118252       86      -1.52994192       1.62498331       0.33551252
F        1.50530219       5.28810132      12.80394626       87      -1.10032415       1.14356041      -0.14336611
F        6.83332628       1.79183194       3.86474651       88      -0.88175941      -0.32222074       0.29210898
F        6.76971856       1.85263816      13.50903498       89      -1.10985982      -0.26931000      -0.58916843
90
Lattice="6.69808883 0.0 0.0 1.989741221035817 12.938476333785607 0.0 -0.173928901686895 0.08232205702577453 17.239903354179905" Properties=species:S:1:pos:R:3:spacegroup_kinds:I:1:forces:R:3 spacegroup="P 1" unit_cell=conventional occupancy="_JSON {\"0\": {\"Al\": 1}, \"1\": {\"Al\": 1}, \"2\": {\"Al\": 1}, \"3\": {\"Al\": 1}, \"4\": {\"H\": 1}, \"5\": {\"H\": 1}, \"6\": {\"H\": 1}, \"7\": {\"H\": 1}, \"8\": {\"H\": 1}, \"9\": {\"H\": 1}, \"10\": {\"H\": 1}, \"11\": {\"H\": 1}, \"12\": {\"H\": 1}, \"13\": {\"H\": 1}, \"14\": {\"H\": 1}, \"15\": {\"H\": 1}, \"16\": {\"H\": 1}, \"17\": {\"H\": 1}, \"18\": {\"H\": 1}, \"19\": {\"H\": 1}, \"20\": {\"C\": 1}, \"21\": {\"C\": 1}, \"22\": {\"C\": 1}, \"23\": {\"C\": 1}, \"24\": {\"C\": 1}, \"25\": {\"C\": 1}, \"26\": {\"C\": 1}, \"27\": {\"C\": 1}, \"28\": {\"C\": 1}, \"29\": {\"C\": 1}, \"30\": {\"C\": 1}, \"31\": {\"C\": 1}, \"32\": {\"C\": 1}, \"33\": {\"C\": 1}, \"34\": {\"C\": 1}, \"35\": {\"C\": 1}, \"36\": {\"C\": 1}, \"37\": {\"C\": 1}, \"38\": {\"C\": 1}, \"39\": {\"C\": 1}, \"40\": {\"C\": 1}, \"41\": {\"C\": 1}, \"42\": {\"C\": 1}, \"43\": {\"C\": 1}, \"44\": {\"C\": 1}, \"45\": {\"C\": 1}, \"46\": {\"C\": 1}, \"47\": {\"C\": 1}, \"48\": {\"C\": 1}, \"49\": {\"C\": 1}, \"50\": {\"C\": 1}, \"51\": {\"C\": 1}, \"52\": {\"O\": 1}, \"53\": {\"O\": 1}, \"54\": {\"O\": 1}, \"55\": {\"O\": 1}, \"56\": {\"O\": 1}, \"57\": {\"O\": 1}, \"58\": {\"O\": 1}, \"59\": {\"O\": 1}, \"60\": {\"O\": 1}, \"61\": {\"O\": 1}, \"62\": {\"O\": 1}, \"63\": {\"O\": 1}, \"64\": {\"O\": 1}, \"65\": {\"O\": 1}, \"66\": {\"O\": 1}, \"67\": {\"O\": 1}, \"68\": {\"O\": 1}, \"69\": {\"O\": 1}, \"70\": {\"O\": 1}, \"71\": {\"O\": 1}, \"72\": {\"O\": 1}, \"73\": {\"O\": 1}, \"74\": {\"O\": 1}, \"75\": {\"O\": 1}, \"76\": {\"O\": 1}, \"77\": {\"O\": 1}, \"78\": {\"O\": 1}, \"79\": {\"O\": 1}, \"80\": {\"O\": 1}, \"81\": {\"O\": 1}, \"82\": {\"F\": 1}, \"83\": {\"F\": 1}, \"84\": {\"F\": 1}, \"85\": {\"F\": 1}, \"86\": {\"F\": 1}, \"87\": {\"F\": 1}, \"88\": {\"F\": 1}, \"89\": {\"F\": 1}}" energy=-617.6421508789062 free_energy=-617.6421508789062 stress="-0.0030288880225270987 0.0002480218536220491 0.0034412601962685585 0.0002480218536220491 0.0008170866640284657 0.00023622286971658468 0.0034412601962685585 0.00023622286971658468 0.00010155598283745348" pbc="T T T"
Al       1.69537026       6.41677998       8.63901018        0      -0.22308016      -0.03157453      -0.45290765
Al       5.02139330       6.37109886       8.64027665        1       1.24047399       0.18090607       0.12464969
Al       5.21464086       0.05605434       0.06243719        2       0.36785087      -0.03247425       0.00778626
Al       1.89004632       0.11104122       0.04766696        3      -0.54544085      -0.70799482       0.08243236
H        1.75903238       3.55089727       2.56984012        4      -2.96743321       0.53951299      -2.64585948
H        1.69341328       3.65285699      14.76893482        5      -1.59073138       0.36133921       1.32001734
H        6.72516906      11.06385736       2.50251636        6       0.57672417       2.30119061      -3.12175322
H        5.79725279       9.76431350      13.56660522        7      -0.98884600      -0.79994321      -1.13042009
H        3.08501612       9.37681440       4.87838901        8      -0.22280133       0.01934277      -0.07985681
H        3.00189668       9.43274837      12.51318233        9      -0.45967174      -0.21162757      -0.24018526
H        4.21478086      10.75580277       3.03861834       10      -1.28764462      -0.78600132       0.80840963
H        3.89331993      10.92424509      14.46990193       11      -0.25461709      -0.26396865      -0.21127415
H        5.61127588       0.05116014       5.83478231       12      -0.09607380       0.22728786      -0.44228473
H        5.54180093       0.17209468      11.53992118       13       0.47289413      -0.37663606      -3.35942316
H        6.27419863       4.24426120       6.39955366       14      -0.11762530       0.50062406       0.04385573
H        6.37614233       4.22012456      10.77419806       15       0.03429568      -0.41262862       0.22860907
H        3.38773585       7.94079042       7.96000828       16       0.06983569      -0.75325513       0.68719172
H        6.77653632       4.61296319       8.48335025       17       0.01947892      -0.40196645      -0.03995619
H        5.41600497      11.44152292      16.80448491       18      -0.09394418      -0.62268984      -0.34737509
H        6.73720366       1.67631933      16.55803576       19      -0.26920879      -0.50279266       0.48268679
C        3.38932700       4.86295624       6.78864658       20      -0.66098511      -1.01082516      -1.70890963
C        3.33338715       4.95185698      10.51270731       21       1.11612642      -0.62610567       1.83343971
C        6.73865465       7.92786054      10.47890348       22      -0.55669695      -0.36825100      -0.56709200
C        6.72153398       7.92843972       6.78282379       23       0.56404203      -0.25991350       0.30670798
C        6.73292399       8.77775727       5.64280071       24      -0.33999115       1.65303147      -1.95241308
C        6.73055655       8.73397389      11.70122259       25      -0.96925014       0.35947829       0.62391233
C        7.86952750       9.28554263       4.96996551       26      -1.99130046       1.23321629      -1.69643092
C        7.80633441       9.22744824      12.43592236       27      -0.79219234       1.09155035       0.97147238
C        2.20577867      10.59046903       3.08670214       28       3.23068905      -0.36771724       0.44864380
C        2.05651315      10.56990663      14.29465453       29      -0.74384016       1.28594124       1.73910093
C        7.77080518      10.17791595       3.71271885       30      -2.07981205      -1.31237435       1.81913733
C        7.67421715      10.06202772      13.66962647       31      -3.74033928      -1.94080555      -1.55729055
C        4.38226782       3.16748933       5.27820838       32       0.80129105      -1.84163439      -1.96510231
C        4.33712803       3.23607135      12.05903030       33       0.35409221      -0.08650079      -0.99667436
C        3.37924428       4.06167164       5.46524160       34       0.04261169       1.66276276       2.26755810
C        3.35144793       4.19761700      11.87471004       35       0.73571730       0.61090642      -3.00305510
C        2.45445210       4.20335089       4.44407634       36      -0.71145666       0.28400379      -1.25965619
C        2.41692873       4.32459844      12.86442899       37       0.59033036      -1.23136711       1.74599314
C        2.48533005       3.46859791       3.24825514       38       3.08024263      -0.90541404       3.24001980
C        2.42213212       3.52083566      14.04487183       39       1.31264997       0.32481501      -2.38053012
C        3.47351005       2.48265626       3.06557272       40       2.00063515       0.28623164       0.93927234
C        3.38264580       2.54230407      14.21302271       41       1.66490650      -0.40322411      -1.32690692
C        4.49413283       2.40046070       4.06990136       42      -1.40112913      -0.01577240       0.57404774
C        4.38568744       2.44557626      13.15328406       43      -1.00717485      -1.09828722       3.41531515
C        5.64539297       1.56712242       4.59406257       44       0.82511806       0.20866334       0.79701293
C        5.59419371       1.63437100      12.76124032       45       0.13245502       0.38008386      -1.82110357
C        5.59390249       2.54749984       5.91922485       46      -0.20289540      -0.74649930       0.39548564
C        5.56232304       2.58060813      11.40064772       47      -0.39195123       0.03455865       0.03553793
C        3.34523532       1.66022717      15.42000198       48       6.89431000       1.52515197      -2.06680179
C        3.56887658       1.61810697       1.84445025       49      -2.39721680       1.59052420       2.21173406
C        2.24007057      11.43639982       1.93298506       50      -3.20310307       0.93198484      -0.24328297
C        1.95358514      11.42493587      15.47549474       51       1.15969336       0.81088018       1.63979304
O        4.51760161       5.12215351      10.00587661       52      -1.19908786      -0.05196951       0.13565323
O        4.55202119       5.13308014       7.23791992       53      -0.04524973       0.02100825       0.12199016
O        2.25161018       5.11319184       7.27021896       54       0.20406953       0.44198889       0.56289858
O        2.22136115       5.31145954      10.06388736       55       0.24856608      -0.26183566      -0.08587456
O        1.15050124       7.57652432       7.24786789       56       0.71282905      -0.36138946       0.31351584
O        1.18046972       7.65184180       9.92030044       57      -1.58784413       0.62569642       1.02969408
O        3.40583918       7.16526772       8.58700155       58      -0.64654261       1.15951419      -0.94007713
O        5.54697836       7.57490698      10.07263190       59       1.50244951      -0.03959509      -0.09471141
O        5.59379460       7.59938845       7.23118871       60      -1.38349950      -0.73570132       0.97722554
O        6.74453540       5.55285772       8.67827349       61      -0.44637531       0.39468446       0.01687482
O        2.44209803       1.32493044       1.37446373       62      -1.46998596      -0.61993551      -1.15487671
O        2.28250171       1.42922096      15.89127108       63      -5.19410801      -1.67190301       2.66115808
O        4.54710000       1.31879965      15.87201037       64      -1.65732741       0.15090461      -0.39202404
O        4.66510893       1.26253257       1.45775101       65       3.09618807      -0.99632591      -1.34086478
O        7.56348774      11.70849428      16.05291155       66      -0.02222469      -0.17572659      -0.59135395
O        7.74732520      11.83974194       1.49308571       67       1.31124330      -0.45789957       0.15147808
O        5.52528508      12.19356007       0.02844281       68       0.05306162       0.58393729       0.46562397
O        3.32667690      11.81265179       1.47104203       69       1.76848257       0.65258062      -1.01728821
O        3.14225754      11.80724828      15.92066370       70      -0.63768417      -0.03362553      -0.40994692
O        0.01463848       0.92969917      17.20280458       71       0.47498786       0.87193841      -0.46968645
O        6.52484258      10.54699237       3.24648484       72       0.31320795      -2.75294399       3.61063099
O        6.36518157      10.20306271      14.19024861       73       2.95652819       0.94088316       0.80154872
O        2.34145984       8.97680518       5.43898070       74       1.82471359      -0.02870073       0.08828840
O        2.29093508       9.00135807      11.93338151       75       2.28438044       0.05862136      -0.00299557
O        3.49616418      10.26982350       3.57583563       76      -0.81979465       0.53758562      -0.67617470
O        3.29250354      10.37387675      13.89485319       77       1.83830249      -0.58260417      -1.19465590
O        5.49372344       0.20071747       4.86121429       78       0.01429088       1.16575193      -0.15610237
O        5.40814493       0.31923011      12.43587007       79      -0.45545736       0.37265974       4.05112219
O        6.65560216       3.37523281       6.16518214       80      -0.26501822      -1.05992055      -0.12279560
O        6.64916741       3.35207176      11.19119586       81      -0.11788833       0.18611184      -0.28050181
F        5.29975752       1.71032040       7.05976310       82       0.28272533       0.82828045      -1.00775945
F        5.23991418       1.75920089      10.28050488       83       0.23792440       0.69737411       0.82310641
F        5.48804066       9.15018029       5.19739696       84       1.16938925      -0.26528376       0.21731919
F        5.44871268       9.02543720      12.18826768       85       1.00178695      -0.43020722      -0.63405335
F        1.48183230       5.16572576       4.52368146       86       0.28405115      -0.20835440       0.15740106
F        1.53252915       5.29018406      12.78552826       87      -1.45003486       1.25939298      -0.01346574
F        6.82918588       1.80668012       3.88720257       88      -0.60539943      -0.38854417       0.19493389
F        6.74465776       1.83831893      13.48680698       89      -0.55566758      -0.11219144       0.03146721
90
Lattice="6.69808883 0.0 0.0 1.989741221035817 12.938476333785607 0.0 -0.173928901686895 0.08232205702577453 17.239903354179905" Properties=species:S:1:pos:R:3:spacegroup_kinds:I:1:forces:R:3 spacegroup="P 1" unit_cell=conventional occupancy="_JSON {\"0\": {\"Al\": 1}, \"1\": {\"Al\": 1}, \"2\": {\"Al\": 1}, \"3\": {\"Al\": 1}, \"4\": {\"H\": 1}, \"5\": {\"H\": 1}, \"6\": {\"H\": 1}, \"7\": {\"H\": 1}, \"8\": {\"H\": 1}, \"9\": {\"H\": 1}, \"10\": {\"H\": 1}, \"11\": {\"H\": 1}, \"12\": {\"H\": 1}, \"13\": {\"H\": 1}, \"14\": {\"H\": 1}, \"15\": {\"H\": 1}, \"16\": {\"H\": 1}, \"17\": {\"H\": 1}, \"18\": {\"H\": 1}, \"19\": {\"H\": 1}, \"20\": {\"C\": 1}, \"21\": {\"C\": 1}, \"22\": {\"C\": 1}, \"23\": {\"C\": 1}, \"24\": {\"C\": 1}, \"25\": {\"C\": 1}, \"26\": {\"C\": 1}, \"27\": {\"C\": 1}, \"28\": {\"C\": 1}, \"29\": {\"C\": 1}, \"30\": {\"C\": 1}, \"31\": {\"C\": 1}, \"32\": {\"C\": 1}, \"33\": {\"C\": 1}, \"34\": {\"C\": 1}, \"35\": {\"C\": 1}, \"36\": {\"C\": 1}, \"37\": {\"C\": 1}, \"38\": {\"C\": 1}, \"39\": {\"C\": 1}, \"40\": {\"C\": 1}, \"41\": {\"C\": 1}, \"42\": {\"C\": 1}, \"43\": {\"C\": 1}, \"44\": {\"C\": 1}, \"45\": {\"C\": 1}, \"46\": {\"C\": 1}, \"47\": {\"C\": 1}, \"48\": {\"C\": 1}, \"49\": {\"C\": 1}, \"50\": {\"C\": 1}, \"51\": {\"C\": 1}, \"52\": {\"O\": 1}, \"53\": {\"O\": 1}, \"54\": {\"O\": 1}, \"55\": {\"O\": 1}, \"56\": {\"O\": 1}, \"57\": {\"O\": 1}, \"58\": {\"O\": 1}, \"59\": {\"O\": 1}, \"60\": {\"O\": 1}, \"61\": {\"O\": 1}, \"62\": {\"O\": 1}, \"63\": {\"O\": 1}, \"64\": {\"O\": 1}, \"65\": {\"O\": 1}, \"66\": {\"O\": 1}, \"67\": {\"O\": 1}, \"68\": {\"O\": 1}, \"69\": {\"O\": 1}, \"70\": {\"O\": 1}, \"71\": {\"O\": 1}, \"72\": {\"O\": 1}, \"73\": {\"O\": 1}, \"74\": {\"O\": 1}, \"75\": {\"O\": 1}, \"76\": {\"O\": 1}, \"77\": {\"O\": 1}, \"78\": {\"O\": 1}, \"79\": {\"O\": 1}, \"80\": {\"O\": 1}, \"81\": {\"O\": 1}, \"82\": {\"F\": 1}, \"83\": {\"F\": 1}, \"84\": {\"F\": 1}, \"85\": {\"F\": 1}, \"86\": {\"F\": 1}, \"87\": {\"F\": 1}, \"88\": {\"F\": 1}, \"89\": {\"F\": 1}}" energy=-616.11962890625 free_energy=-616.11962890625 stress="-0.007633748464286327 0.0033435074146836996 0.003811487229540944 0.0033435074146836996 -0.0007575221825391054 0.0012389373732730746 0.003811487229540944 0.0012389373732730746 0.0020864910911768675" pbc="T T T"
Al       1.67539822       6.44504179       8.65782582        0       0.38343769      -0.67419636      -0.15402323
Al       5.04620503       6.36390058       8.65513106        1       0.44031578       0.39398018      -0.15494835
Al       5.19373992       0.03600334       0.07233005        2       0.59178203       0.22587837      -0.15126133
Al       1.86843016       0.11983609       0.04438266        3       0.04411943      -0.76507664       0.61333752
H        1.74219049       3.56963138       2.54254581        4      -1.56858897       0.26624382      -1.55627322
H        1.68205166       3.66165909      14.74561599        5      -0.63961422       0.12681751       0.49931309
H        6.74192536      11.06615619       2.53105872        6       1.26741076       3.87326217      -5.29042244
H        5.79324859       9.74656172      13.53788356        7      -0.47503248      -0.34351224      -0.46134555
H        3.10935167       9.39709774       4.86548610        8      -0.94301802      -0.32092562       0.17341551
H        3.02774839       9.42920814      12.53423902        9      -1.07746792      -0.41999397      -0.59399915
H        4.21209933      10.77789529       3.01584084       10      -2.10687160      -1.42713618       1.40914333
H        3.86496203      10.94040252      14.47315036       11       0.01112232      -0.45793861      -0.32927084
H        5.60820848       0.02421009       5.86382501       12      -0.26203942       0.46063361      -2.11854768
H        5.56905736       0.15991658      11.52654902       13       0.60832614      -0.31221515      -2.76753783
H        6.25316533       4.27339318       6.39290698       14       0.75572908      -1.19859552      -0.31882304
H        6.36076978       4.19168640      10.77464651       15      -0.47277930       1.02086759      -0.46786869
H        3.37566844       7.96844003       7.93530551       16       0.14686178      -2.03357744       1.66082597
H        6.76405072       4.58404626       8.49664206       17       0.09536820       0.62140852       0.15290457
H        5.41218989      11.43110752      16.78915557       18      -0.05877121      -0.61351252      -0.35710183
H        6.72258888       1.65739338      16.58357401       19      -0.30515230       0.41888762      -0.27588469
C        3.36135994       4.83391147       6.81517991       20       3.61186075      -0.77714038      -3.12022972
C        3.35872811       4.93638656      10.51872006       21      -0.52562517      -0.66167521       2.49216032