74
Lattice="9.08031253 0.0 0.0 4.378904008694037 9.45962291749315 0.0 4.378914718340235 -0.4566831370456524 9.448585295858772" Properties=species:S:1:pos:R:3:spacegroup_kinds:I:1:forces:R:3 spacegroup="P 1" unit_cell=conventional occupancy="_JSON {\"0\": {\"Cd\": 1}, \"1\": {\"Cd\": 1}, \"2\": {\"H\": 1}, \"3\": {\"H\": 1}, \"4\": {\"H\": 1}, \"5\": {\"H\": 1}, \"6\": {\"H\": 1}, \"7\": {\"H\": 1}, \"8\": {\"H\": 1}, \"9\": {\"H\": 1}, \"10\": {\"H\": 1}, \"11\": {\"H\": 1}, \"12\": {\"H\": 1}, \"13\": {\"H\": 1}, \"14\": {\"H\": 1}, \"15\": {\"H\": 1}, \"16\": {\"H\": 1}, \"17\": {\"H\": 1}, \"18\": {\"H\": 1}, \"19\": {\"H\": 1}, \"20\": {\"H\": 1}, \"21\": {\"H\": 1}, \"22\": {\"H\": 1}, \"23\": {\"H\": 1}, \"24\": {\"H\": 1}, \"25\": {\"H\": 1}, \"26\": {\"H\": 1}, \"27\": {\"H\": 1}, \"28\": {\"H\": 1}, \"29\": {\"H\": 1}, \"30\": {\"C\": 1}, \"31\": {\"C\": 1}, \"32\": {\"C\": 1}, \"33\": {\"C\": 1}, \"34\": {\"C\": 1}, \"35\": {\"C\": 1}, \"36\": {\"C\": 1}, \"37\": {\"C\": 1}, \"38\": {\"C\": 1}, \"39\": {\"C\": 1}, \"40\": {\"C\": 1}, \"41\": {\"C\": 1}, \"42\": {\"C\": 1}, \"43\": {\"C\": 1}, \"44\": {\"C\": 1}, \"45\": {\"C\": 1}, \"46\": {\"C\": 1}, \"47\": {\"C\": 1}, \"48\": {\"C\": 1}, \"49\": {\"C\": 1}, \"50\": {\"C\": 1}, \"51\": {\"C\": 1}, \"52\": {\"C\": 1}, \"53\": {\"C\": 1}, \"54\": {\"C\": 1}, \"55\": {\"C\": 1}, \"56\": {\"C\": 1}, \"57\": {\"C\": 1}, \"58\": {\"N\": 1}, \"59\": {\"N\": 1}, \"60\": {\"N\": 1}, \"61\": {\"N\": 1}, \"62\": {\"N\": 1}, \"63\": {\"N\": 1}, \"64\": {\"N\": 1}, \"65\": {\"N\": 1}, \"66\": {\"O\": 1}, \"67\": {\"O\": 1}, \"68\": {\"O\": 1}, \"69\": {\"O\": 1}, \"70\": {\"O\": 1}, \"71\": {\"O\": 1}, \"72\": {\"O\": 1}, \"73\": {\"O\": 1}}" energy=-484.2418518066406 free_energy=-484.2418518066406 stress="0.0043466477654874325 0.0033187963999807835 -0.001975958002731204 0.0033187963999807835 -0.0007575452327728271 0.004920680075883865 -0.001975958002731204 0.004920680075883865 -0.006691630929708481" pbc="T T T"
Cd       4.73705804       0.51835780       2.05404467        0      -0.37210450      -0.35780331       0.20061167
Cd      13.12455133       6.95823763       8.87179951        1       0.01207470       0.12697978      -0.19153814
H        7.37776762       5.43385879       7.10864976        2      -1.48078036      -0.21460845       0.82865787
H       10.43905401       2.12015339       3.62919663        3       0.19127059       0.02415584       0.23313993
H       10.16660457       5.58986100       7.51055263        4      -0.50750601      -0.49449086      -0.40851006
H        7.72424413       1.76903776       3.54782203        5      -0.54308265       0.09788598      -0.19265056
H        6.82199537       8.77461844       3.89653952        6       0.90620697      -0.56511509       0.32264417
H       11.01093597       5.52393179       0.54195636        7      -0.78430027       0.10381252       0.26463604
H        6.46243022       7.11208564       5.66920686        8      -1.22909749      -0.12064268       0.53514630
H       11.41139707       3.68413310       2.10138559        9      -0.69154662       0.51014197      -0.20632771
H       10.62543199       5.91556530       5.31003584       10       0.09676321       0.00120457      -0.18362859
H        7.20184559       3.98999771       3.31432473       11       1.40192223       0.68369722      -1.01608336
H       10.81679207       7.58960580       3.47266373       12      -0.11672722       0.05463725      -0.10805559
H        7.00440361       5.92685128       1.69472640       13       0.59344089      -0.52131283       0.00788634
H        7.17797011       1.41477996       9.29901820       14       0.12119238       0.05531973       0.15090975
H       10.64757924      -0.19375804       7.54063103       15       1.63545084      -0.56697959       1.21170282
H        7.21035411       3.29306629       7.69358510       16      -0.94821441       0.15323707      -0.42899913
H       10.63102613       1.49556697       5.78391734       17       0.66788942       0.37708098      -0.08194687
H       11.31603557       3.97515076       8.77081334       18      -0.03597887      -0.15890691       0.06954858
H        6.50190499       0.43628709       5.04650657       19       0.91692007      -0.13456360       0.64194268
H        6.70311965       2.50244584       0.89474350       20       1.71459246      -0.54204696       1.23496842
H       11.09304285       8.20918168       6.88081862       21       0.43673503       0.33199376      -0.06134821
H       12.21419399       4.29287627       4.58806574       22       0.02690266      -0.28576559       0.03513087
H        5.57787493       4.66787658       4.94113773       23      -0.11995000      -0.34525740       0.12994477
H       12.17567012       3.05577564       5.81192905       24      -0.37476194      -0.17182545       0.47613236
H        5.64906447       3.32969636       6.10254460       25      -0.20271225       0.23181927      -0.35547686
H       14.09127007       8.86424564       2.10397924       26       0.02917546      -0.09631652       0.70378542
H        3.69499188       7.31676501       0.53011918       27       0.21169658       0.21544492      -0.09439483
H        9.76729432       0.65982984       0.89579745       28      -0.20560549      -0.73380423       0.08760517
H        8.10161207       8.17282620       8.75612660       29       0.07425751      -0.39265576       0.97825027
C        7.65847466       8.09409446       4.23024533       30      -1.16161919       1.02427268      -1.48226476
C       10.16422146       5.20332335       1.19257526       31       0.87230211       1.42059064      -2.19897795
C        7.39646255       7.14763156       5.18296981       32       2.33962536      -0.92458284       0.66262013
C       10.40879468       4.17554732       2.02018202       33       0.84764498      -1.98514664       2.03724813
C        8.48349752       6.32463945       5.65946459       34       0.53477073       1.57606578      -2.08919954
C        9.36950970       3.70137195       2.84980138       35      -1.49720812       0.31917506      -0.77447355
C        9.77008658       6.49264816       4.96354965       36      -2.01322746      -0.58320409       1.72041142
C        8.10071050       4.35719020       2.68187269       37      -0.50394976      -2.40335870       2.53712893
C        9.85603488       7.42287602       3.96917266       38      -0.37592322       1.15337586      -0.83870983
C        7.96944157       5.37123732       1.80654845       39      -1.02567196       1.81123173      -1.23245955
C        8.07679990       2.02818904       9.17694649       40      -0.68509907      -0.44367328      -0.21219553
C        9.78514463      -0.06474802       6.98352909       41      -2.17255807       0.62232441      -1.68212199
C        8.06684868       3.06057199       8.27228728       42       2.34596395       0.94054925      -0.15189490
C        9.75686707       0.91556953       5.98357215       43      -0.06130020      -0.60955483       0.58897024
C        9.29885277       3.82426048       8.07966435       44      -1.79946959      -1.55156028       1.34112573
C        8.59544232       1.10905561       5.24101558       45      -1.18500113      -1.65042853       1.11641479
C       10.38015220       3.41560101       8.86489195       46       0.83996260       0.34032750       0.07366160
C        7.46502474       0.30109387       5.61433343       47      -0.53589261       1.75855970      -1.98784065
C        5.90401213       2.81336001       0.31642168       48      -1.96003509       0.65508157      -1.69914889
C       11.95592030       8.85730088       6.61893281       49      -1.55685878      -1.12580442      -0.02285723
C        4.08640924       2.41410741       4.02395388       50      -1.91020203       0.39030880       1.04155445
C       13.78508258       5.09855254       6.81803717       51       0.34563279      -0.60995340       0.05689520
C       12.82206345       3.49831899       5.06703791       52       0.59632224       0.23315385      -0.94759846
C        4.96833953       4.11506901       5.69314563       53       0.94171387       0.18253802       0.26328102
C        6.26547243       8.37383902       0.42000644       54       0.43514180       2.73095751       2.37757397
C       11.55086893       9.00387779       1.05185188       55      -0.00115660      -1.33440852      -0.73761576
C        4.99153975       9.00379376       1.03520406       56       1.02176309       0.19345984      -1.14438808
C       12.84081323       8.41764368       0.42722241       57      -1.43203020       0.72407556      -0.78643119
N        8.28586433       5.46089159       6.69224419       58       2.80840492      -0.33273870      -0.44257623
N        9.52529616       2.60903980       3.68402270       59      -0.11981469       0.27358711      -0.03548110
N        9.39112715       4.92767628       7.28342280       60      -0.37488383       0.78957158      -0.18598485
N        8.45799800       1.98609387       4.20906435       61       0.71581745       0.71053988      -0.62864566
N        8.81855844       8.24744457       3.56004559       62       0.93853188      -1.05010927       1.20023382
N        8.96989379       5.80980824       1.00900639       63       0.40146858      -0.49430844       0.69673520
N        4.76248616       2.11354585       0.46069253       64       0.34430543       0.53677893      -0.01000787
N       13.07914000       8.62164235       7.26002123       65       1.90317988       0.25363573       0.97203505
O        5.28056785       2.16733758       3.75231490       66       0.62783802      -0.37930939      -0.68424392
O       12.58872758       5.38313031       7.06058253       67      -0.89495265       0.68558115       0.46367824
O        3.06468656       1.76959248       3.53833836       68       1.10114336       0.10820706      -0.28675139
O       14.76456987       5.55827009       7.52058809       69      -0.17752770       0.08498958      -0.20675758
O        7.39122729       8.90867449       0.81971297       70      -0.50511622      -0.54148179      -0.43556327
O       10.40942890       8.61489752       0.52742667       71       1.20564246       0.85206640       0.82424206
O       10.59907639       6.99268504       9.06682963       72      -0.10484056      -1.74078178      -1.52957451
O        7.26184924       0.28309720       2.07075337       73      -0.53696007       0.12408404      -0.32372943
74
Lattice="9.08031253 0.0 0.0 4.378904008694037 9.45962291749315 0.0 4.378914718340235 -0.4566831370456524 9.448585295858772" Properties=species:S:1:pos:R:3:spacegroup_kinds:I:1:forces:R:3 spacegroup="P 1" unit_cell=conventional occupancy="_JSON {\"0\": {\"Cd\": 1}, \"1\": {\"Cd\": 1}, \"2\": {\"H\": 1}, \"3\": {\"H\": 1}, \"4\": {\"H\": 1}, \"5\": {\"H\": 1}, \"6\": {\"H\": 1}, \"7\": {\"H\": 1}, \"8\": {\"H\": 1}, \"9\": {\"H\": 1}, \"10\": {\"H\": 1}, \"11\": {\"H\": 1}, \"12\": {\"H\": 1}, \"13\": {\"H\": 1}, \"14\": {\"H\": 1}, \"15\": {\"H\": 1}, \"16\": {\"H\": 1}, \"17\": {\"H\": 1}, \"18\": {\"H\": 1}, \"19\": {\"H\": 1}, \"20\": {\"H\": 1}, \"21\": {\"H\": 1}, \"22\": {\"H\": 1}, \"23\": {\"H\": 1}, \"24\": {\"H\": 1}, \"25\": {\"H\": 1}, \"26\": {\"H\": 1}, \"27\": {\"H\": 1}, \"28\": {\"H\": 1}, \"29\": {\"H\": 1}, \"30\": {\"C\": 1}, \"31\": {\"C\": 1}, \"32\": {\"C\": 1}, \"33\": {\"C\": 1}, \"34\": {\"C\": 1}, \"35\": {\"C\": 1}, \"36\": {\"C\": 1}, \"37\": {\"C\": 1}, \"38\": {\"C\": 1}, \"39\": {\"C\": 1}, \"40\": {\"C\": 1}, \"41\": {\"C\": 1}, \"42\": {\"C\": 1}, \"43\": {\"C\": 1}, \"44\": {\"C\": 1}, \"45\": {\"C\": 1}, \"46\": {\"C\": 1}, \"47\": {\"C\": 1}, \"48\": {\"C\": 1}, \"49\": {\"C\": 1}, \"50\": {\"C\": 1}, \"51\": {\"C\": 1}, \"52\": {\"C\": 1}, \"53\": {\"C\": 1}, \"54\": {\"C\": 1}, \"55\": {\"C\": 1}, \"56\": {\"C\": 1}, \"57\": {\"C\": 1}, \"58\": {\"N\": 1}, \"59\": {\"N\": 1}, \"60\": {\"N\": 1}, \"61\": {\"N\": 1}, \"62\": {\"N\": 1}, \"63\": {\"N\": 1}, \"64\": {\"N\": 1}, \"65\": {\"N\": 1}, \"66\": {\"O\": 1}, \"67\": {\"O\": 1}, \"68\": {\"O\": 1}, \"69\": {\"O\": 1}, \"70\": {\"O\": 1}, \"71\": {\"O\": 1}, \"72\": {\"O\": 1}, \"73\": {\"O\": 1}}" energy=-482.73541259765625 free_energy=-482.73541259765625 stress="0.00732180243358016 0.0026215780526399612 0.0004986503627151251 0.0026215780526399612 -0.008702387101948261 0.009856113232672215 0.0004986503627151251 0.009856113232672215 -0.010591928847134113" pbc="T T T"
Cd       4.71326644       0.50286874       2.04697543        0      -0.11352602      -0.24390568       0.40450352
Cd      13.09727085       6.96996638       8.84858809        1       0.11270304       0.03291626       0.09355094
H        7.37741093       5.44448213       7.12847715        2      -0.17059085      -0.13895412      -0.03972134
H       10.43325089       2.09460665       3.61646282        3      -0.21902786       0.25672320       0.29734090
H       10.18484311       5.56984956       7.53933686        4      -1.17141831      -0.76845944      -0.79533285
H        7.70261672       1.77106888       3.57522950        5      -0.63133788       0.14467607      -0.28699568
H        6.84416978       8.76579495       3.92138000        6       0.93974167      -0.45213351       0.02924751
H       11.03722342       5.54630091       0.56923125        7      -1.35510182      -0.10310675       0.42831990
H        6.47293949       7.11280929       5.65106614        8      -1.92741394      -0.09374321       0.77920043
H       11.43577942       3.68560856       2.11365187        9      -0.97729385       0.77408749      -0.38102782
H       10.60237310       5.94524188       5.29685270       10       1.67817831      -1.01887989       0.37293229
H        7.20063419       3.98192414       3.29858791       11       1.41920567       0.85579538      -1.17122912
H       10.79980134       7.60312698       3.46015331       12       0.17615592      -0.00746328      -0.24684876
H        7.00543399       5.91068298       1.67401418       13       0.96579683      -0.59497684       0.21223342
H        7.15053927       1.41439773       9.27846777       14       0.12162209      -0.00904660       0.21723032
H       10.66807672      -0.17325674       7.51798714       15       1.77842116      -0.79700774       1.43044233
H        7.20272219       3.31585653       7.66965322       16       0.45979506      -0.17292026       0.57300746
H       10.62632752       1.46955953       5.76885206       17       0.59152031       0.38091183       0.00181035
H       11.32573529       3.94806580       8.74607906       18       0.02042572      -0.14745560       0.22644120
H        6.47536004       0.44156517       5.07140399       19       1.69602990      -0.10628474       0.87705511
H        6.71454366       2.50136449       0.86970224       20       1.56523705      -0.39852327       1.05958438
H       11.11400772       8.23136011       6.88010713       21      -1.24635696      -0.83418638       0.39649129
H       12.19492674       4.29040809       4.57502578       22       0.06883087      -0.42220271       0.21806164
H        5.55166110       4.68599859       4.94422711       23       0.06909071      -0.07884967      -0.23872554
H       12.15375271       3.05048055       5.80008765       24      -0.68515807      -0.33823562       0.99985504
H        5.66075068       3.32002171       6.09965846       25      -0.86619824       1.03257203      -0.76934898
H       14.06291248       8.87011760       2.09308515       26       0.27657118      -0.43805075       2.38395214
H        3.67053472       7.33865371       0.53512313       27       0.30896860       0.28130579      -0.04547323
H        9.75059862       0.63063776       0.92415028       28       0.00463101      -0.52863812       0.13667145
H        8.09044412       8.15588355       8.74802299       29       0.26072299      -0.23382223       1.51863551
C        7.68682190       8.07570843       4.21471204       30      -2.58750081       1.66450608      -1.13295794
C       10.15242959       5.19911665       1.20160271       31       2.28592777       2.54607821      -3.69825912
C        7.37993994       7.15689889       5.15311829       32       4.06088495      -2.16503954       1.56043458
C       10.42840690       4.18900735       1.99459664       33       0.04221413      -3.74090910       4.40350866
C        8.51104227       6.34833460       5.67101126       34      -0.11525628       1.46803880      -2.75272369
C        9.35639317       3.72708034       2.87752633       35      -0.01395715      -0.46391654      -1.51136959
C        9.79280242       6.49758432       4.95423444       36      -3.79714012       0.15980712       1.75712144
C        8.09878203       4.36744465       2.65852303       37      -0.44113308      -3.89290285       4.43924761
C        9.85244666       7.41223821       3.95548930       38       0.31262076       1.16076326      -0.78401184
C        7.99759248       5.38023751       1.83171354       39      -2.24328446       3.28166914      -3.13387871
C        8.05266621       2.01797669       9.17558450       40       1.24840486       0.26834732       0.33030424
C        9.78473006      -0.08813718       6.99761588       41      -2.79434919       1.77760875      -3.06973386
C        8.09501510       3.08906507       8.29765291       42       0.00080146       0.40148717      -1.32954192
C        9.73399136       0.91978325       5.98692662       43       0.15135048      -1.12532830       0.90332896
C        9.30989979       3.84385677       8.05407689       44      -1.78516126      -3.44611216       3.39615154
C        8.57152330       1.12836141       5.21835893       45       0.26393870      -3.48366308       4.02677822
C       10.37890015       3.41574982       8.88508012       46       0.80606806       1.88897228      -1.80334616
C        7.49082484       0.32118497       5.62408326       47      -3.02926636       0.38920125      -1.38591981
C        5.91061593       2.83371799       0.29829027       48      -2.08290625      -0.89200968      -0.14451739
C       11.92700499       8.85134726       6.64781343       49       0.99185663       1.20804620      -1.61795139
C        4.07178908       2.40978638       4.03004183       50      -0.11691049       0.28655723       1.23939300
C       13.77515579       5.10913868       6.84590916       51       0.72949022      -0.90999055      -1.27548242
C       12.79978392       3.50282647       5.08786355       52       1.03392947       0.52244586      -2.11901999
C        4.94902224       4.14027075       5.67884324       53       1.20989048      -0.92584360       1.68619967
C        6.25499041       8.40239139       0.40986857       54       1.75368595       2.24452996       2.99690390
C       11.52364501       8.98920321       1.04031094       55       2.30875278      -0.21332556       0.47063214
C        5.01862298       8.97577997       1.06468808       56      -0.28358722       1.24135196      -2.94144511
C       12.83847135       8.44697148       0.45205510       57      -1.39187646      -0.39047047      -1.84835672
N        8.31173660       5.43763850       6.66679603       58       0.17005841       0.28460425       0.16775119
N        9.51926921       2.60366917       3.71257564       59      -0.26216996       0.81487852      -0.56640339
N        9.36438359       4.92399946       7.29734044       60       1.95204353       2.35351443      -0.58988774
N        8.43817846       1.96788558       4.23849930       61       0.92233247       2.89104486      -3.20673990
N        8.83244446       8.22969380       3.57619430       62       1.29169548      -0.40434766       0.12197941
N        8.97299055       5.79828943       0.99421259       63       0.01472575      -0.02068680       1.00802147
N        4.77567016       2.11717248       0.48644637       64      -0.94854230       0.79578203      -1.09663630
N       13.07035517       8.60790370       7.25115053       65       1.89128804      -0.11479239       1.56542730
O        5.30312095       2.15215058       3.77668761       66      -1.38659835      -0.09053744      -0.49843001
O       12.58044497       5.40256698       7.06305230       67      -1.06680357       0.73492569       0.86472136
O        3.05104699       1.76610955       3.56406050       68       1.20829344      -0.01530416      -0.51685864
O       14.77410718       5.58011573       7.49475801       69      -0.21197468       0.20978335       0.26305252
O        7.41396742       8.93736191       0.81720324       70      -1.44943762      -0.88928485      -0.95555258
O       10.42736403       8.61890863       0.52196289       71      -0.52467954       0.25854415       0.10655446
O       10.60098032       6.99975269       9.08313412       72      -0.13076088      -1.54624057      -1.60822010
O        7.28706345       0.26449650       2.07072257       73      -1.13718474       0.04607668      -0.40213454
74
Lattice="9.08031253 0.0 0.0 4.378904008694037 9.45962291749315 0.0 4.378914718340235 -0.4566831370456524 9.448585295858772" Properties=species:S:1:pos:R:3:spacegroup_kinds:I:1:forces:R:3 spacegroup="P 1" unit_cell=conventional occupancy="_JSON {\"0\": {\"Cd\": 1}, \"1\": {\"Cd\": 1}, \"2\": {\"H\": 1}, \"3\": {\"H\": 1}, \"4\": {\"H\": 1}, \"5\": {\"H\": 1}, \"6\": {\"H\": 1}, \"7\": {\"H\": 1}, \"8\": {\"H\": 1}, \"9\": {\"H\": 1}, \"10\": {\"H\": 1}, \"11\": {\"H\": 1}, \"12\": {\"H\": 1}, \"13\": {\"H\": 1}, \"14\": {\"H\": 1}, \"15\": {\"H\": 1}, \"16\": {\"H\": 1}, \"17\": {\"H\": 1}, \"18\": {\"H\": 1}, \"19\": {\"H\": 1}, \"20\": {\"H\": 1}, \"21\": {\"H\": 1}, \"22\": {\"H\": 1}, \"23\": {\"H\": 1}, \"24\": {\"H\": 1}, \"25\": {\"H\": 1}, \"26\": {\"H\": 1}, \"27\": {\"H\": 1}, \"28\": {\"H\": 1}, \"29\": {\"H\": 1}, \"30\": {\"C\": 1}, \"31\": {\"C\": 1}, \"32\": {\"C\": 1}, \"33\": {\"C\": 1}, \"34\": {\"C\": 1}, \"35\": {\"C\": 1}, \"36\": {\"C\": 1}, \"37\": {\"C\": 1}, \"38\": {\"C\": 1}, \"39\": {\"C\": 1}, \"40\": {\"C\": 1}, \"41\": {\"C\": 1}, \"42\": {\"C\": 1}, \"43\": {\"C\": 1}, \"44\": {\"C\": 1}, \"45\": {\"C\": 1}, \"46\": {\"C\": 1}, \"47\": {\"C\": 1}, \"48\": {\"C\": 1}, \"49\": {\"C\": 1}, \"50\": {\"C\": 1}, \"51\": {\"C\": 1}, \"52\": {\"C\": 1}, \"53\": {\"C\": 1}, \"54\": {\"C\": 1}, \"55\": {\"C\": 1}, \"56\": {\"C\": 1}, \"57\": {\"C\": 1}, \"58\": {\"N\": 1}, \"59\": {\"N\": 1}, \"60\": {\"N\": 1}, \"61\": {\"N\": 1}, \"62\": {\"N\": 1}, \"63\": {\"N\": 1}, \"64\": {\"N\": 1}, \"65\": {\"N\": 1}, \"66\": {\"O\": 1}, \"67\": {\"O\": 1}, \"68\": {\"O\": 1}, \"69\": {\"O\": 1}, \"70\": {\"O\": 1}, \"71\": {\"O\": 1}, \"72\": {\"O\": 1}, \"73\": {\"O\": 1}}" energy=-481.80047607421875 free_energy=-481.80047607421875 stress="-0.0018316212808713317 0.0008701925980858505 0.002539739478379488 0.0008701925980858505 -0.014150377362966537 0.011446899734437466 0.002539739478379488 0.011446899734437466 -0.015940949320793152" pbc="T T T"
Cd       4.74257851       0.47620154       2.03862450        0      -0.47938636       0.20348941       0.38418996
Cd      13.12007693       6.95651113       8.87319288        1      -0.30514762       0.16359119      -0.06470631
H        7.36406580       5.42799044       7.14139784        2       0.33017796      -0.11742137      -0.22324754
H       10.45413620       2.11802195       3.64595226        3       0.43587339      -0.24619885       0.22539432
H       10.16211406       5.56978207       7.53560596        4      -0.41999617      -0.42174914      -0.48072925
H        7.68359308       1.79756129       3.57560327        5       0.23488930       0.34338740       0.52409625
H        6.85426094       8.77919921       3.94456102        6       1.13788342      -0.80356586       0.23627716
H       11.01189019       5.53139885       0.57299022        7      -0.46586066       0.55640411      -0.36778790
H        6.50124168       7.10041512       5.67310122        8      -2.34158635      -0.06716836       1.01270354
H       11.42922620       3.71167696       2.10368036        9      -0.16851203       0.21380264      -0.34975839
H       10.58035094       5.94010978       5.28015164       10       2.23552775      -1.37118840       0.54494441
H        7.18591101       4.00946905       3.30189758       11       1.45583200       0.81835991      -1.15165973
H       10.78385372       7.60864994       3.43109289       12      -0.44704688      -0.39015600       0.32457983
H        7.03019811       5.89379386       1.70108010       13      -0.04208589      -0.13144490      -0.20560814
H        7.15087718       1.39994898       9.25239324       14       0.63336599       0.21587448       0.43183276
H       10.63897013      -0.17567849       7.53884882       15       2.04186988      -0.69936788       1.52705872
H        7.17786123       3.32159198       7.68075146       16       0.07892464      -0.14878000       0.28644001
H       10.60714156       1.46263488       5.76267003       17       0.84700531       0.48216411      -0.05432374
H       11.30149806       3.92936788       8.73906475       18       0.66400182       0.19098887       0.08706781
H        6.46755692       0.41590838       5.06993945       19       2.15499282      -0.10970891       0.88751209
H        6.70782857       2.52722678       0.84181313       20       1.56606793      -0.53480732       1.17239881
H       11.08816131       8.25093470       6.89765792       21      -0.81517571      -0.48847419       0.13560542
H       12.17201215       4.28886509       4.60253952       22       0.10248002      -0.47122431      -0.03196826
H        5.52475437       4.66181660       4.97226593       23       1.22584653       1.01556742      -1.59789920
H       12.16055973       3.02469256       5.78773160       24      -0.82315439      -0.47424322       1.23392820
H        5.63985044       3.34224956       6.09196327       25      -0.15371551       0.34157273      -0.38451958
H       14.09045247       8.84869740       2.06710538       26       0.20943791      -0.26662743       2.70776987
H        3.69266160       7.32214298       0.50865883       27       0.24139521       0.05604774       0.11427470
H        9.72381205       0.61452176       0.89574938       28       0.07049626       0.22580042       0.17538029
H        8.11729953       8.17088599       8.76573689       29       0.22030132      -0.40173361       1.29638648
C        7.70694695       8.06794728       4.23334225       30      -3.58293819       2.16946554      -1.33161581
C       10.15642098       5.22847045       1.18073527       31       1.03637302      -0.03886664      -1.52723897
C        7.39691634       7.13524589       5.17572648       32       4.36345005      -1.23582864       0.63756108
C       10.43532249       4.15970051       1.96818372       33      -1.01391053      -1.19642389       3.32903337
C        8.52152110       6.35929845       5.67158387       34      -0.54265618      -0.12500182      -1.47678030
C        9.38366887       3.74473859       2.87910738       35      -1.22525060      -1.10571861      -1.49629164
C        9.77570826       6.47211791       4.93754952       36      -3.88679695       0.52013195       1.82751775
C        8.07664890       4.38571467       2.65082801       37       0.93742281      -5.35496330       5.46334553
C        9.82722575       7.39373093       3.96446690       38       1.43301427       2.21511245      -2.50461721
C        7.97900029       5.35408225       1.80389773       39      -2.08340025       3.43774223      -2.70674896
C        8.08051247       2.00429158       9.20417720       40      -1.36213219       1.75251532      -2.12504697
C        9.76455988      -0.05884577       7.01974982       41      -2.83431745       0.85542685      -3.05528402
C        8.07479399       3.10991387       8.27439017       42       0.70405507      -0.92655289       0.17616026
C        9.73385487       0.89585691       5.97711414       43      -0.55487192      -0.54685992       0.96251392
C        9.28330589       3.85749618       8.02898638       44      -0.99124360      -5.61564064       5.22257471
C        8.54409185       1.13831373       5.23270536       45       2.17132878      -3.59802914       3.96595907
C       10.37377856       3.40629570       8.86227852       46      -0.48252451       1.17192984      -1.57215214
C        7.52063894       0.29561144       5.60148502       47      -4.97817802       0.55555815      -1.62211394
C        5.88620793       2.82481242       0.28030238       48      -0.94842875       0.24614210      -0.47415060
C       11.91632615       8.86174653       6.63178561       49       1.58060443      -0.17908779      -0.18075562
C        4.09729137       2.40169894       4.03954983       50      -2.93355393       1.09498668       0.95030522
C       13.78575354       5.11082155       6.86119207       51      -0.85319990      -0.43664515      -1.46169317
C       12.78203186       3.48393075       5.06959793       52       2.38542867       1.34976244      -0.99546671
C        4.97681345       4.14992760       5.69143390       53      -1.89057505      -1.93298817       2.19534445
C        6.22907768       8.41260302       0.43006028       54       3.26326299       2.47368336       2.49304628
C       11.50159960       9.01338926       1.01317044       55       5.66617489      -0.17985678       2.06439543
C        5.01915069       8.98938426       1.04858663       56      -0.66804409       0.60852301      -2.32906961
C       12.85392519       8.42081422       0.45805494       57      -2.09679890       0.59312952      -2.18358135
N        8.31381828       5.41130023       6.67668116       58       0.24653059       1.14724338      -0.46688479
N        9.53639557       2.57790700       3.69395496       59      -1.23054290       1.82727218      -0.40145355
N        9.37836407       4.91547447       7.32386874       60       0.62382299       4.21183825      -2.63065910
N        8.44818930       1.97772358       4.26138215       61      -0.05504772       3.17552900      -4.78129387