78
Lattice="8.45768564 0.0 0.0 -0.0001407828790761792 9.02903029890244 0.0 7.710135545528063e-05 -2.5407126587806834 9.040278901031305" Properties=species:S:1:pos:R:3:spacegroup_kinds:I:1:forces:R:3 spacegroup="P 1" unit_cell=conventional occupancy="_JSON {\"0\": {\"Fe\": 1}, \"1\": {\"Fe\": 1}, \"2\": {\"H\": 1}, \"3\": {\"H\": 1}, \"4\": {\"H\": 1}, \"5\": {\"H\": 1}, \"6\": {\"H\": 1}, \"7\": {\"H\": 1}, \"8\": {\"H\": 1}, \"9\": {\"H\": 1}, \"10\": {\"H\": 1}, \"11\": {\"H\": 1}, \"12\": {\"H\": 1}, \"13\": {\"H\": 1}, \"14\": {\"H\": 1}, \"15\": {\"H\": 1}, \"16\": {\"H\": 1}, \"17\": {\"H\": 1}, \"18\": {\"H\": 1}, \"19\": {\"H\": 1}, \"20\": {\"H\": 1}, \"21\": {\"H\": 1}, \"22\": {\"H\": 1}, \"23\": {\"H\": 1}, \"24\": {\"H\": 1}, \"25\": {\"H\": 1}, \"26\": {\"H\": 1}, \"27\": {\"H\": 1}, \"28\": {\"H\": 1}, \"29\": {\"H\": 1}, \"30\": {\"H\": 1}, \"31\": {\"H\": 1}, \"32\": {\"H\": 1}, \"33\": {\"H\": 1}, \"34\": {\"C\": 1}, \"35\": {\"C\": 1}, \"36\": {\"C\": 1}, \"37\": {\"C\": 1}, \"38\": {\"C\": 1}, \"39\": {\"C\": 1}, \"40\": {\"C\": 1}, \"41\": {\"C\": 1}, \"42\": {\"C\": 1}, \"43\": {\"C\": 1}, \"44\": {\"C\": 1}, \"45\": {\"C\": 1}, \"46\": {\"C\": 1}, \"47\": {\"C\": 1}, \"48\": {\"C\": 1}, \"49\": {\"C\": 1}, \"50\": {\"C\": 1}, \"51\": {\"C\": 1}, \"52\": {\"C\": 1}, \"53\": {\"C\": 1}, \"54\": {\"C\": 1}, \"55\": {\"C\": 1}, \"56\": {\"C\": 1}, \"57\": {\"C\": 1}, \"58\": {\"C\": 1}, \"59\": {\"C\": 1}, \"60\": {\"C\": 1}, \"61\": {\"C\": 1}, \"62\": {\"N\": 1}, \"63\": {\"N\": 1}, \"64\": {\"N\": 1}, \"65\": {\"N\": 1}, \"66\": {\"O\": 1}, \"67\": {\"O\": 1}, \"68\": {\"O\": 1}, \"69\": {\"O\": 1}, \"70\": {\"O\": 1}, \"71\": {\"O\": 1}, \"72\": {\"O\": 1}, \"73\": {\"O\": 1}, \"74\": {\"O\": 1}, \"75\": {\"O\": 1}, \"76\": {\"O\": 1}, \"77\": {\"O\": 1}}" energy=-507.7055969238281 free_energy=-507.7055969238281 stress="-0.014761333353817463 0.0017740112962201238 0.00012621704081539065 0.0017740112962201238 -0.02904391661286354 -0.0007050438434816897 0.00012621704081539065 -0.0007050438434816897 -0.012849855236709118" pbc="T T T"
Fe       4.22873796       1.97392540       9.04027562        0       0.21551174       0.34629843      -0.07649466
Fe       8.45773621      -1.27025903       4.52025116        1       0.06481584       0.28888732      -0.39323142
H        1.59980782       5.70026651       3.22751409        2       0.04417685      -0.47181326       0.22008774
H        5.81668330       6.61552764       1.35222883        3      -0.12680337      -0.13282309      -0.07128441
H        6.85462685       0.84163032       5.87142724        4       0.09174891       0.04258469      -0.24521968
H        2.65985822      -0.08371394       7.74515976        5      -0.26068380      -0.13122883      -0.19864392
H        2.31925176       3.39651450       3.71172898        6       0.46766552      -0.61555439      -0.53903401
H        6.57087257      -0.10356022       0.86562391        7      -0.23029327      -0.24264434      -0.13468255
H        6.11453364       3.10797858       5.38659643        8      -0.11152027       0.27318102       0.11296010
H        1.86331839       6.64002379       8.23185806        9      -0.00044143      -0.23657659      -0.04663861
H        8.15538869       6.03804222       6.91047603       10       0.20489150      -0.11784383      -0.24089262
H        3.92908123       3.75366560       6.70838105       11       0.10704264       0.08984741      -0.04551283
H        0.24607088       0.50951330       2.18716116       12       0.01139643       0.03568876      -0.24873838
H        4.49398583       2.79299272       2.38990369       13      -0.20991462      -0.19526742      -0.06780171
H        8.19669593       2.66934809       7.82398934       14      -0.49502161      -0.86250925      -0.02644332
H        3.93748752       7.06447955       5.79437273       15      -0.49330774       1.02785444       0.06870430
H        0.26010526       3.84488096       1.25949398       16       0.46282470       0.92976636       0.00632164
H        4.51282051      -0.56763141       3.30366756       17      -0.12266912      -0.10373701       0.18490821
H        8.14093342       4.25277338       8.49635651       18      -0.92918140       0.97569311       0.56134123
H        3.91487819       5.47675811       5.11992969       19      -0.01541132      -0.02224393       0.10006718
H        0.29289018       2.23616807       0.58860377       20       0.24635336      -0.07550314       0.01562706
H        4.51979585       1.04775779       3.97783932       21       0.36931932       0.38181484       0.19747309
H        1.73813348       2.36004743       5.93089101       22       0.15266570      -0.42701337       0.07904779
H        5.96898464      -1.62195385       7.68634296       23       0.19393313       0.54674125      -0.04357342
H        6.71648888       4.12912444       3.16538508       24      -0.43544263       1.26058626      -0.22484607
H        2.46848357       8.14500680       1.41264483       25      -0.16007562      -0.43589762       0.06611069
H        4.38895699       5.52592635       2.49237998       26       1.79204011       1.57033324       1.81838238
H        0.15892776       6.70027931       1.98004342       27       0.30952537       0.01399953      -0.19894594
H        4.01166866       0.90804148       6.49626115       28       1.38656116       1.15827107       0.87531114
H        8.24281018      -0.25913811       7.01465864       29       0.94306856       0.00907494      -0.25606361
H        2.92582190       5.63490790       1.77521960       30       0.48515031      -0.10249001       0.17571071
H        7.14747812       6.59084847       2.72830123       31       1.57093573       1.49055278      -0.17096165
H        5.48504830       0.80066205       7.25090178       32       0.35643116       0.03279254       0.12085992
H        1.25383569      -0.14659034       6.25936434       33       2.78741121       2.40954995      -0.39811909
C        1.48646671       3.20623863       8.86286681       34       1.12261581      -0.68486792      -0.72381169
C        5.69838698       6.58440517       4.70793484       35       1.14851153       1.02344823       2.66064596
C        6.95822180       3.31118143       0.23736598       36       1.21613336      -0.17268226      -0.39282551
C        2.70522376      -0.03631877       4.30369394       37       1.44999671       0.52894986       0.46963987
C        0.70192857       4.09382052       6.61159703       38      -0.80363750       1.98397303       0.10499959
C        4.94626026       5.66230414       7.00877329       39      -0.62589407      -0.38360274      -0.63861847
C        7.76787687       2.41825788       2.48860602       40      -0.89298671       0.89721143      -0.20576207
C        3.52663242       0.84307241       2.09142452       41      -0.09296015       1.71799672      -0.38681123
C        1.34025867       5.20600178       4.17125152       42       0.88153613      -0.00142965      -1.33556378
C        5.53717416       7.06633095       0.40871952       43       0.89868039       0.73240662      -0.28096288
C        7.09371184       1.32001986       4.92484514       44       1.57681644      -2.06393528      -0.81322253
C        2.86672511      -0.55882645       8.69047583       45       0.72059298      -0.32131553       0.38935322
C        1.76480569       3.91021596       4.45957474       46      -0.52501351       0.58698773       0.57128614
C        5.99026525       8.36111444       0.12038766       47      -0.31103021       0.36783186      -0.09988581
C        6.70039420       2.58432230       4.64060768       48      -0.56860095       0.71357250      -0.02648856
C        2.46448329      -1.88023800       8.97966452       49      -0.15739670       1.41016853      -0.38829395
C        0.29302252       5.41149302       6.23993935       50       0.78811818      -0.38761756      -1.53131318
C        4.52135973       4.37243991       7.38022552       51       0.30560860      -0.00775852      -0.14176619
C        8.12128588       1.13213135       2.86027339       52       1.36671948      -0.24393028      -1.64882207
C        3.89429650       2.16914915       1.71947599       53       0.50091511      -0.36281407      -0.54496604
C        0.29668531       3.57801691       7.96282372       54       1.69720197      -0.38652152      -0.29231161
C        4.55146063       6.19839895       5.65552843       55       0.40259236      -0.99258888      -0.37506998
C        8.13154953       2.95602495       1.13218972       56      -0.29900181      -1.27878773       0.15608919
C        3.89822619       0.34241243       3.44422287       57       0.06762555      -0.24767540      -0.31064811
C        1.43183164       3.36078776       5.68882775       58       0.28743404      -0.25737566      -0.39939275
C        5.64710374       6.41587214       7.93153812       59       0.54497313      -0.74046552       0.85399961
C        7.01335724       3.15181492       3.41140467       60       0.73076349      -0.87030995      -0.28906569
C        2.77181878       0.11629848       1.16861117       61       0.32786211      -0.21720000       0.13269994
N        0.63701919       5.96362967       4.97855940       62      -0.89317572      -1.80320144       3.64399862
N        4.85728804       3.79534017       8.54959598       63       0.03913403       1.40933704      -0.08934823
N        7.87917266       0.57843461       4.00801504       64      -2.44168258       1.37440813       3.04659677
N        3.65149766       2.72197904       0.48576013       65      -1.45104814      -2.73272967       1.24248576
O        2.43095046       2.47967000       8.31547379       66      -1.96987474       1.02255154       0.58848822
O        6.65970774       7.30564177       5.23842103       67      -1.79546106      -0.80669230      -0.31034544
O        6.08414798       4.06282622       0.71346850       68      -0.79817212       0.71331859       0.92975938
O        1.85746463      -0.77252583       3.75625835       69      -0.74673462      -0.56462198      -0.14319575
O        1.51756104       6.15097659       1.03285514       70      -0.21636793      -0.28755373      -0.59175879
O        5.69810713       6.17962356       3.53827287       71      -0.07144868      -0.45203006      -1.49146628
O        6.98532547       0.39253385       8.06542627       72       0.11778168      -0.47972420      -0.35787219
O        2.70263918       0.36797929       5.52135852       73      -0.01483907      -0.15350947      -0.28834185
O        3.76748762       5.09956684       1.95271440       74      -2.50574827      -1.25996006      -1.71766639
O        7.99607237       7.21622840       2.54378332       75      -2.12518167      -1.56959319       0.21293919
O        4.74758156       1.43263288       7.06388436       76      -1.81711125      -1.35039997      -1.48985660
O        0.51960464      -0.67305575       6.45483580       77      -3.74094868      -2.11164069       1.32668865
78
Lattice="8.45768564 0.0 0.0 -0.0001407828790761792 9.02903029890244 0.0 7.710135545528063e-05 -2.5407126587806834 9.040278901031305" Properties=species:S:1:pos:R:3:spacegroup_kinds:I:1:forces:R:3 spacegroup="P 1" unit_cell=conventional occupancy="_JSON {\"0\": {\"Fe\": 1}, \"1\": {\"Fe\": 1}, \"2\": {\"H\": 1}, \"3\": {\"H\": 1}, \"4\": {\"H\": 1}, \"5\": {\"H\": 1}, \"6\": {\"H\": 1}, \"7\": {\"H\": 1}, \"8\": {\"H\": 1}, \"9\": {\"H\": 1}, \"10\": {\"H\": 1}, \"11\": {\"H\": 1}, \"12\": {\"H\": 1}, \"13\": {\"H\": 1}, \"14\": {\"H\": 1}, \"15\": {\"H\": 1}, \"16\": {\"H\": 1}, \"17\": {\"H\": 1}, \"18\": {\"H\": 1}, \"19\": {\"H\": 1}, \"20\": {\"H\": 1}, \"21\": {\"H\": 1}, \"22\": {\"H\": 1}, \"23\": {\"H\": 1}, \"24\": {\"H\": 1}, \"25\": {\"H\": 1}, \"26\": {\"H\": 1}, \"27\": {\"H\": 1}, \"28\": {\"H\": 1}, \"29\": {\"H\": 1}, \"30\": {\"H\": 1}, \"31\": {\"H\": 1}, \"32\": {\"H\": 1}, \"33\": {\"H\": 1}, \"34\": {\"C\": 1}, \"35\": {\"C\": 1}, \"36\": {\"C\": 1}, \"37\": {\"C\": 1}, \"38\": {\"C\": 1}, \"39\": {\"C\": 1}, \"40\": {\"C\": 1}, \"41\": {\"C\": 1}, \"42\": {\"C\": 1}, \"43\": {\"C\": 1}, \"44\": {\"C\": 1}, \"45\": {\"C\": 1}, \"46\": {\"C\": 1}, \"47\": {\"C\": 1}, \"48\": {\"C\": 1}, \"49\": {\"C\": 1}, \"50\": {\"C\": 1}, \"51\": {\"C\": 1}, \"52\": {\"C\": 1}, \"53\": {\"C\": 1}, \"54\": {\"C\": 1}, \"55\": {\"C\": 1}, \"56\": {\"C\": 1}, \"57\": {\"C\": 1}, \"58\": {\"C\": 1}, \"59\": {\"C\": 1}, \"60\": {\"C\": 1}, \"61\": {\"C\": 1}, \"62\": {\"N\": 1}, \"63\": {\"N\": 1}, \"64\": {\"N\": 1}, \"65\": {\"N\": 1}, \"66\": {\"O\": 1}, \"67\": {\"O\": 1}, \"68\": {\"O\": 1}, \"69\": {\"O\": 1}, \"70\": {\"O\": 1}, \"71\": {\"O\": 1}, \"72\": {\"O\": 1}, \"73\": {\"O\": 1}, \"74\": {\"O\": 1}, \"75\": {\"O\": 1}, \"76\": {\"O\": 1}, \"77\": {\"O\": 1}}" energy=-504.5159912109375 free_energy=-504.5159912109375 stress="-0.02192329242825508 -0.0016674406360834837 -0.0034979942720383406 -0.0016674406360834837 -0.056055743247270584 -0.00267637986689806 -0.0034979942720383406 -0.00267637986689806 -0.03453558310866356" pbc="T T T"
Fe       4.20909618       2.00236953       9.01485951        0       0.74753088       0.22192940       0.12405305
Fe       8.46089350      -1.24110851       4.49549149        1       0.21438211      -0.06563194      -0.40510494
H        1.62958330       5.70981046       3.25726437        2       0.04253191      -0.71420443       0.39021695
H        5.84564729       6.64374874       1.38208551        3      -0.22813883      -0.33194995      -0.14417313
H        6.83352747       0.87074334       5.89548438        4       0.21996950      -0.16171324      -0.28326964
H        2.66139446      -0.05529667       7.77006887        5      -0.32693231      -0.27514341      -0.15789205
H        2.33931377       3.41700942       3.74129913        6       0.54439241      -0.71761864      -0.63197172
H        6.58648339      -0.11923839       0.86069266        7       0.18338913       0.09899815       0.44608235
H        6.14008451       3.09535891       5.38539469        8      -0.56373966       0.63413352       0.61873609
H        1.87472598       6.65996021       8.26171625        9      -0.25936490      -0.64802927      -0.29807559
H        8.17497137       6.06745028       6.92739624       10       0.16083783      -0.06516682      -0.18748687
H        3.93053309       3.78353110       6.73803338       11      -0.11775884      -0.08131059      -0.24079579
H        0.22682100       0.53892613       2.21697393       12       0.16344005      -0.06823613      -0.55866146
H        4.48850540       2.82147262       2.39880341       13      -0.09550638      -0.00414489       0.08750913
H        8.22552306       2.68011168       7.85313926       14      -0.47243786      -1.01907909      -0.12538952
H        3.96469852       7.03492032       5.79399928       15      -0.88354099       1.42531431       0.26890957
H        0.26259406       3.81608064       1.24022554       16       1.81414914       3.09781766       0.29639885
H        4.49945433      -0.55036637       3.33353638       17       0.12749705      -0.44717985       0.13127597
H        8.15974471       4.22306133       8.50858861       18      -1.65671945       1.82529569       1.24160147
H        3.94463785       5.48655458       5.14979312       19      -0.65240616      -0.87576902      -0.40968278
H        0.30407220       2.25734080       0.61758871       20       0.29420370      -0.20212519      -0.01526569
H        4.51089385       1.02731091       3.99372959       21       1.58876324       1.72220731       1.21954405
H        1.76587206       2.38846121       5.96037867       22       0.45347753      -1.62031603       0.39165759
H        5.98525880      -1.65048557       7.70772186       23       0.28246105       0.58128470      -0.03907876
H        6.74507284       4.10210865       3.18888165       24      -0.55085027       1.34343469      -0.08968721
H        2.49824398       8.17471282       1.44250522       25      -0.17642041      -0.72920334       0.24087007
H        4.35910041       5.49763214       2.46546150       26       4.56514692       3.60227752       4.69808483
H        0.14465273       6.68176828       1.95589214       27       0.31141755       0.42717621       0.09673116
H        3.98338582       0.91573471       6.48077888       28       1.99394107       1.63686728       1.20916724
H        8.21368782      -0.28741473       6.98478862       29       1.80483317      -0.03001015      -0.61943209
H        2.89706546       5.60509066       1.75133849       30       1.21151817      -0.20156652       0.40830928
H        7.12115282       6.56173525       2.69847137       31       2.53980827       2.56191897       0.02889351
H        5.45737342       0.77914560       7.22281014       32       0.87434947      -0.30756646       0.34957331
H        1.22765166      -0.17617607       6.23047890       33       6.79289532       5.66011906      -1.35428357
C        1.51488933       3.22589491       8.89267901       34       0.96067435      -1.06756675      -2.73045874
C        5.67059967       6.60740761       4.70017510       35       2.69073319       1.61761820       4.80473375
C        6.98657145       3.30532777       0.26733622       36       0.73387742       0.64192969      -0.67440796
C        2.67686350      -0.00957137       4.32819031       37       3.26272964       0.56919140      -2.12062621
C        0.72038813       4.12269623       6.63978908       38      -0.46592802       1.16468191      -0.16337779
C        4.94294900       5.64853032       7.03868217       39       0.14023922       1.27994013      -0.76508701
C        7.79343446       2.44730711       2.50782953       40      -1.20297122       1.02405572      -0.06701748
C        3.55271632       0.87193029       2.12067934       41      -0.32620218       1.83362031      -0.40836275
C        1.36811896       5.19470227       4.20120614       42       0.46836644       1.51556587      -1.65571380
C        5.56389717       7.09089075       0.43870689       43      -0.10100743      -1.67619491      -0.95855576
C        7.07766341       1.34906271       4.95240480       44       3.01094842      -5.22928810      -0.60624820
C        2.86616825      -0.53053956       8.72025126       45       0.66039300      -1.51239371       0.00318092
C        1.78404959       3.92291779       4.48956839       46      -0.33998010      -0.55956823       1.02336001
C        6.01819574       8.33251137       0.15037118       47      -0.29449475       1.84682202      -1.00944805
C        6.71268670       2.55599945       4.67017518       48      -1.13600266       3.19140339      -1.00349903
C        2.48583163      -1.90549631       9.00963413       49       0.08787890       3.48509002      -0.68291122
C        0.31298728       5.44063056       6.26207797       50       0.95025885      -0.52312988      -1.77036691
C        4.51034320       4.39979519       7.40986783       51       0.15983886      -1.19007909      -0.32483587
C        8.10527851       1.15959399       2.88694737       52       2.54244518       0.09417383      -4.24724293
C        3.88264645       2.19888460       1.74533639       53       0.95532370      -0.47561377      -0.91783869
C        0.32157089       3.58697680       7.99252000       54       2.31825638      -0.89630294      -1.03992593
C        4.56384419       6.17101513       5.68485295       55       1.17572844      -0.05038125      -0.32186458
C        8.15224043       2.98544786       1.15630252       56      -1.45022082      -3.58772373       0.13951613
C        3.92170535       0.36415673       3.47280139       57      -1.72731876      -1.23339760      -1.18820941
C        1.44946516       3.35000218       5.71867221       58      -0.38009200       1.98655355      -0.57021230
C        5.66611932       6.38974034       7.96130197       59       0.36162785      -0.68226230       0.33527350
C        7.03426731       3.12408732       3.44125112       60       0.64539862       0.24009210      -0.76094723
C        2.79293166       0.13987696       1.19855992       61       0.48195410      -0.62744343       0.32810721
N        0.66665456       5.98353003       4.99095901       62      -0.91254795      -2.00192952       3.72558379
N        4.88626957       3.79839510       8.52989465       63       0.56620729       1.75653553       1.93244445
N        7.90902358       0.60192422       3.98333933       64      -3.77425790       0.42160025       6.52718973
N        3.68089260       2.73131710       0.47561313       65      -1.70387053      -2.56971192       2.00386024
O        2.46084958       2.50690792       8.31728048       66      -2.19944382       1.00187814       0.72275048
O        6.68948284       7.32647954       5.22030356       67      -2.77635908      -1.03725791      -0.21104440
O        6.11405259       4.09219653       0.68401711       68      -1.09104168       0.83068657       1.51099539
O        1.88742866      -0.74268578       3.73177151       69      -1.99138236      -1.41881752      -0.42953318
O        1.54728176       6.18046430       1.02263450       70      -0.00210326       0.04650135       1.20683765
O        5.69853231       6.20959413       3.56080973       71      -0.45560715      -1.20846081      -3.45059729
O        7.01492836       0.41966479       8.09538426       72       0.46285075      -1.21759963      -1.13111651
O        2.67592178       0.39467000       5.49269388       73      -0.23119354       0.68993521       2.52498865
O        3.79733164       5.11859097       1.92409669       74      -6.07859802      -3.06706023      -4.82781839
O        8.02488264       7.24261438       2.53753258       75      -3.13447189      -2.99536133      -0.19715469
O        4.77685866       1.45261849       7.05540474       76      -3.09086609      -1.54358447      -2.18852901
O        0.54851887      -0.66279274       6.42606259       77      -8.71688938      -5.13955641       2.94676638
78
Lattice="8.45768564 0.0 0.0 -0.0001407828790761792 9.02903029890244 0.0 7.710135545528063e-05 -2.5407126587806834 9.040278901031305" Properties=species:S:1:pos:R:3:spacegroup_kinds:I:1:forces:R:3 spacegroup="P 1" unit_cell=conventional occupancy="_JSON {\"0\": {\"Fe\": 1}, \"1\": {\"Fe\": 1}, \"2\": {\"H\": 1}, \"3\": {\"H\": 1}, \"4\": {\"H\": 1}, \"5\": {\"H\": 1}, \"6\": {\"H\": 1}, \"7\": {\"H\": 1}, \"8\": {\"H\": 1}, \"9\": {\"H\": 1}, \"10\": {\"H\": 1}, \"11\": {\"H\": 1}, \"12\": {\"H\": 1}, \"13\": {\"H\": 1}, \"14\": {\"H\": 1}, \"15\": {\"H\": 1}, \"16\": {\"H\": 1}, \"17\": {\"H\": 1}, \"18\": {\"H\": 1}, \"19\": {\"H\": 1}, \"20\": {\"H\": 1}, \"21\": {\"H\": 1}, \"22\": {\"H\": 1}, \"23\": {\"H\": 1}, \"24\": {\"H\": 1}, \"25\": {\"H\": 1}, \"26\": {\"H\": 1}, \"27\": {\"H\": 1}, \"28\": {\"H\": 1}, \"29\": {\"H\": 1}, \"30\": {\"H\": 1}, \"31\": {\"H\": 1}, \"32\": {\"H\": 1}, \"33\": {\"H\": 1}, \"34\": {\"C\": 1}, \"35\": {\"C\": 1}, \"36\": {\"C\": 1}, \"37\": {\"C\": 1}, \"38\": {\"C\": 1}, \"39\": {\"C\": 1}, \"40\": {\"C\": 1}, \"41\": {\"C\": 1}, \"42\": {\"C\": 1}, \"43\": {\"C\": 1}, \"44\": {\"C\": 1}, \"45\": {\"C\": 1}, \"46\": {\"C\": 1}, \"47\": {\"C\": 1}, \"48\": {\"C\": 1}, \"49\": {\"C\": 1}, \"50\": {\"C\": 1}, \"51\": {\"C\": 1}, \"52\": {\"C\": 1}, \"53\": {\"C\": 1}, \"54\": {\"C\": 1}, \"55\": {\"C\": 1}, \"56\": {\"C\": 1}, \"57\": {\"C\": 1}, \"58\": {\"C\": 1}, \"59\": {\"C\": 1}, \"60\": {\"C\": 1}, \"61\": {\"C\": 1}, \"62\": {\"N\": 1}, \"63\": {\"N\": 1}, \"64\": {\"N\": 1}, \"65\": {\"N\": 1}, \"66\": {\"O\": 1}, \"67\": {\"O\": 1}, \"68\": {\"O\": 1}, \"69\": {\"O\": 1}, \"70\": {\"O\": 1}, \"71\": {\"O\": 1}, \"72\": {\"O\": 1}, \"73\": {\"O\": 1}, \"74\": {\"O\": 1}, \"75\": {\"O\": 1}, \"76\": {\"O\": 1}, \"77\": {\"O\": 1}}" energy=-499.1919250488281 free_energy=-499.1919250488281 stress="-0.030589977279305458 -0.004141926299780607 -0.00769777363166213 -0.004141926299780607 -0.0758625715970993 -0.00480701494961977 -0.00769777363166213 -0.00480701494961977 -0.04854476451873779" pbc="T T T"
Fe       4.18809686       2.02900106       9.00100558        0       1.32692719       0.13251098       0.11491486
Fe       8.48154080      -1.21233681       4.51026174        1       0.20736703      -0.29215130      -1.12683725
H        1.65944252       5.73267202       3.28673813        2       0.05876375      -1.22566390       0.63281083
H        5.87549818       6.66944002       1.41202911        3      -0.19165169      -0.96265668       0.31595677
H        6.81754736       0.90030573       5.90960081        4       0.21843085      -0.49113375       0.08663835
H        2.67750714      -0.02746443       7.79924261        5      -0.60248756      -0.31093845      -0.43387654
H        2.36776690       3.43796757       3.77107190        6       1.05604827      -1.24788189      -1.23468745
H        6.61251568      -0.12986999       0.85575591        7       0.41491589       0.27741724       0.87422788
H        6.16964098       3.07154118       5.39186454        8      -1.09278989       1.20951366       1.18981957
H        1.90465272       6.68531522       8.29153560        9      -0.58019131      -0.98168790      -0.64652967
H        8.19982333       6.09695175       6.91207786       10      -0.70435423       0.81799877       0.73769820
H        3.92188714       3.81315743       6.76776680       11      -0.10537753       0.04580440      -0.27469274
H        0.22665869       0.56753444       2.24413828       12      -0.09325822       0.12992175      -0.46912232
H        4.48257592       2.85114742       2.37763378       13       0.18618140       0.19455287       0.46189129
H        8.25475900       2.69440267       7.88243773       14      -1.06265521      -2.29642677      -0.24323669
H        3.98980539       7.00531845       5.79281799       15      -2.18302393       3.09216261       0.53473473
H        0.28603711       3.80728801       1.22960159       16       2.88357735       4.64967251       0.48674643
H        4.52874642      -0.52388394       3.34780774       17       0.19927907      -0.92912805       0.15632086
H        8.18811437       4.19343874       8.53349235       18      -1.81488919       1.97020173       1.30714440
H        3.97437515       5.48617878       5.17562597       19      -0.37690660      -0.62171072      -0.14460811
H        0.32851669       2.28649189       0.61391594       20       0.03358676      -0.04192080       0.29464275
H        4.51594293       1.00207251       3.98588902       21       2.70810509       3.10209417       2.24644375
H        1.79475151       2.41831401       5.98859076       22       1.05868649      -3.39428091       0.93019366
H        5.99833048      -1.67885640       7.73534245       23       0.51954675       0.87965828       0.03022891
H        6.77446009       4.07548497       3.21141474       24      -0.61667997       1.38386488       0.00165073
H        2.52798527       8.20223291       1.47038659       25      -0.72219527      -2.66965151       0.63809383
H        4.33123933       5.47166651       2.43559132       26       7.82874393       6.00953531       8.67605686
H        0.11808007       6.65600409       1.92991910       27       0.58687460       0.48602781       0.11063090
H        3.95472945       0.88983784       6.45366251       28       2.36042571       2.28139901       1.30684912
H        8.18803413      -0.31645876       6.95575301       29       2.59231997      -0.22097458      -0.95507658
H        2.86967851       5.57541903       1.72321766       30       1.91779089      -0.30851579       0.61767328
H        7.09438425       6.53466866       2.67419050       31       2.95901632       3.16503692       0.28178513
H        5.42857813       0.75061227       7.19326380       32       0.86595935      -0.03642178       0.45388651
H        1.19805852      -0.20372677       6.20320030       33      10.70503998       9.27848339      -2.60931349
C        1.54456868       3.25544097       8.92046042       34       1.21421146      -1.68864310      -3.25472689
C        5.64271476       6.63457813       4.70983347       35       4.31187487       1.21466601       2.50923538
C        7.01575176       3.32439121       0.29725731       36       0.92920315       0.41917890      -1.15487063
C        2.64980899       0.01997725       4.33502043       37       4.87486649       0.25837111      -4.25419188
C        0.72484725       4.10906407       6.66941771       38      -0.59972274       2.40515828      -1.00956416
C        4.96697451       5.67667896       7.06832931       39      -0.37845457       0.61599994      -1.29115129
C        7.82318853       2.45646628       2.53450994       40      -1.63107228       2.22206306      -0.55617547
C        3.57892145       0.85255766       2.14816356       41      -0.42825562       3.38949728      -1.77398443
C        1.38104002       5.18420626       4.23049594       42       1.26270473       1.26662672      -2.66260362
C        5.59215659       7.06769997       0.46866119       43      -0.31606239      -1.03059387      -2.20259356
C        7.06883897       1.37285754       4.98079454       44       4.24421215      -8.10497379      -0.25685167
C        2.84904947      -0.50084034       8.74972560       45       1.23183656      -2.23678017       0.05348027
C        1.81370468       3.89510560       4.51955901       46      -1.26406085       0.92952049       1.52205873
C        6.04299707       8.30705378       0.18017167       47      -0.47917145       1.66149640      -1.29597414
C        6.74146116       2.54462883       4.70006491       48      -1.71983600       5.33892250      -1.93775094
C        2.51531193      -1.91259061       9.03958115       49       0.10198167       4.35053682      -0.51173484
C        0.29042881       5.46950122       6.27561564       50       2.72680163      -2.68111897      -2.92424655
C        4.51196970       4.42925331       7.43536567       51       0.05540952      -1.04606056      -1.19467652