88
Lattice="8.38809147 0.0 0.0 -0.0038410532716067415 8.386558480396673 0.0 -0.004309395759539946 0.0009360445525084686 11.94430563592712" Properties=species:S:1:pos:R:3:spacegroup_kinds:I:1:forces:R:3 spacegroup="P 1" unit_cell=conventional occupancy="_JSON {\"0\": {\"Cu\": 1}, \"1\": {\"Cu\": 1}, \"2\": {\"Cu\": 1}, \"3\": {\"Cu\": 1}, \"4\": {\"H\": 1}, \"5\": {\"H\": 1}, \"6\": {\"H\": 1}, \"7\": {\"H\": 1}, \"8\": {\"H\": 1}, \"9\": {\"H\": 1}, \"10\": {\"H\": 1}, \"11\": {\"H\": 1}, \"12\": {\"H\": 1}, \"13\": {\"H\": 1}, \"14\": {\"H\": 1}, \"15\": {\"H\": 1}, \"16\": {\"H\": 1}, \"17\": {\"H\": 1}, \"18\": {\"H\": 1}, \"19\": {\"H\": 1}, \"20\": {\"H\": 1}, \"21\": {\"H\": 1}, \"22\": {\"H\": 1}, \"23\": {\"H\": 1}, \"24\": {\"H\": 1}, \"25\": {\"H\": 1}, \"26\": {\"H\": 1}, \"27\": {\"H\": 1}, \"28\": {\"H\": 1}, \"29\": {\"H\": 1}, \"30\": {\"H\": 1}, \"31\": {\"H\": 1}, \"32\": {\"H\": 1}, \"33\": {\"H\": 1}, \"34\": {\"H\": 1}, \"35\": {\"H\": 1}, \"36\": {\"H\": 1}, \"37\": {\"H\": 1}, \"38\": {\"H\": 1}, \"39\": {\"H\": 1}, \"40\": {\"C\": 1}, \"41\": {\"C\": 1}, \"42\": {\"C\": 1}, \"43\": {\"C\": 1}, \"44\": {\"C\": 1}, \"45\": {\"C\": 1}, \"46\": {\"C\": 1}, \"47\": {\"C\": 1}, \"48\": {\"C\": 1}, \"49\": {\"C\": 1}, \"50\": {\"C\": 1}, \"51\": {\"C\": 1}, \"52\": {\"C\": 1}, \"53\": {\"C\": 1}, \"54\": {\"C\": 1}, \"55\": {\"C\": 1}, \"56\": {\"C\": 1}, \"57\": {\"C\": 1}, \"58\": {\"C\": 1}, \"59\": {\"C\": 1}, \"60\": {\"C\": 1}, \"61\": {\"C\": 1}, \"62\": {\"C\": 1}, \"63\": {\"C\": 1}, \"64\": {\"N\": 1}, \"65\": {\"N\": 1}, \"66\": {\"N\": 1}, \"67\": {\"N\": 1}, \"68\": {\"O\": 1}, \"69\": {\"O\": 1}, \"70\": {\"O\": 1}, \"71\": {\"O\": 1}, \"72\": {\"O\": 1}, \"73\": {\"O\": 1}, \"74\": {\"O\": 1}, \"75\": {\"O\": 1}, \"76\": {\"O\": 1}, \"77\": {\"O\": 1}, \"78\": {\"O\": 1}, \"79\": {\"O\": 1}, \"80\": {\"O\": 1}, \"81\": {\"O\": 1}, \"82\": {\"O\": 1}, \"83\": {\"O\": 1}, \"84\": {\"O\": 1}, \"85\": {\"O\": 1}, \"86\": {\"O\": 1}, \"87\": {\"O\": 1}}" energy=-539.5253295898438 free_energy=-539.5253295898438 stress="-0.0029477498028427362 0.00010358818690292537 4.622865162673406e-05 0.00010358818690292537 -0.0030266898684203625 -7.187173309830541e-07 4.622865162673406e-05 -7.187173309830541e-07 0.0016083407681435347" pbc="T T T"
Cu       7.59673095       2.54389363       1.32900490        0       0.20992392      -0.08973907      -0.03231630
Cu       0.78184792       5.84227494       7.30275461        1      -0.20596132       0.08993788      -0.03058194
Cu       5.83433253       7.60007043      10.29056279        2       0.09022993       0.20599532      -0.05794108
Cu       2.54167172       0.78673854       4.31826291        3      -0.10065086      -0.20023438      -0.03628564
H        0.18220494       1.01035160      10.88349448        4      -0.00879371      -0.04826258      -0.02393164
H        8.19364824       7.37770372       4.91319441        5      -0.00121686       0.02286360      -0.02072082
H        7.37215663       0.19751552       7.90504265        6       0.08593349      -0.04234582      -0.02610715
H        1.00552954       8.19184549       1.93131102        7      -0.02451005      -0.00806309      -0.02150585
H        3.51066852       1.57445450       1.34284683        8      -0.07785545       0.01364992       0.01931045
H        4.86942465       6.81738360       7.31507546        9       0.00648120      -0.04246464       0.01456723
H        6.80866756       3.51547671      10.29936072       10      -0.01668609      -0.10881257       0.00902253
H        1.56807904       4.87458486       4.32449733       11       0.02954526       0.03529604       0.01343927
H        4.53689578       2.96395575       0.88654217       12      -0.03083961      -0.04926804       0.03369636
H        3.84183552       5.42640080       6.85983955       13       0.03367873       0.00742565       0.02381915
H        5.41623580       4.53979504       9.84377153       14      -0.00132322      -0.04142493       0.02222116
H        2.96063328       3.85026413       3.87425906       15       0.02547063       0.03557496       0.00807276
H        2.40307689       3.87034800      10.80953557       16       0.06305114       0.07721846       0.00571941
H        5.97239886       4.51647348       4.83621856       17      -0.05514772      -0.08516009       0.02725230
H        4.51118520       2.41559467       7.82509529       18      -0.05329336       0.07478796      -0.01657996
H        3.86659617       5.97163153       1.85359028       19       0.04831390      -0.06228977      -0.02260597
H        2.58390703       3.64228476       9.04584195       20       0.10373905       0.03118142       0.00120907
H        5.79258653       4.74589070       3.07324169       21      -0.10082123      -0.02060989       0.02552100
H        4.74143116       2.59387240       6.05949359       22      -0.00867311       0.10577099       0.05240843
H        3.63844539       5.79380026       0.08883889       23       0.02326155      -0.09987915       0.00771992
H        3.70365440       2.80352348      10.17427297       24       0.00671253       0.06783482      -0.02441262
H        4.67261886       5.58394483       4.20007706       25      -0.00213818      -0.06617908      -0.01605463
H        5.57920895       3.71552472       7.18668489       26      -0.06121899       0.01106960      -0.01713640
H        2.79997714       4.67342711       1.21600773       27       0.06073684      -0.01440538      -0.02842119
H        1.24212237       0.19457277       9.17699424       28       0.00906330       0.03758378      -0.03057022
H        7.13600854       8.19416942       3.20479203       29      -0.01948916      -0.06588130      -0.02692749
H        8.18730470       1.24711269       6.19182389       30      -0.04961370       0.00676474      -0.02511775
H        0.19373089       7.14124896       0.21640264       31       0.04409710      -0.01268119      -0.01679083
H        2.97425893       0.60426398       9.12237936       32      -0.00236180      -0.01712392      -0.10043445
H        5.40283557       7.78476215       3.14969541       33       0.06188951      -0.00874487      -0.10413469
H        7.78075603       2.97926022       6.13098062       34       0.00124370      -0.02349577      -0.09618947
H        0.59838130       5.40738346       0.15807871       35       0.00380942       0.03561434      -0.09769444
H        1.84105981       1.45751357       8.04057712       36       0.04403164      -0.11278839       0.03470182
H        6.53653191       6.93067344       2.06839629       37      -0.03881015       0.10430148       0.03218594
H        6.92276658       1.84396312       5.05633015       38       0.10088755       0.03806226       0.01449266
H        1.45301505       6.54450540      11.02739734       39      -0.10311554      -0.04985476       0.03525835
C        5.13305220       2.05659304       2.68996918       40      -0.00536254      -0.14690253      -0.48963767
C        3.24534815       6.33513074       8.66195015       41       0.07899925       0.10523736      -0.44802806
C        6.32901502       5.13686760      11.64505683       42       0.09707538      -0.18596011      -0.44296759
C        2.04922661       3.25275835       5.67347849       43      -0.12764919       0.03780165      -0.48659614
C        0.82373250       1.89523976      10.98598958       44      -0.23999192      -0.03172919       0.20248926
C        7.55323676       6.49102210       5.01614360       45       0.17049073       0.14732575       0.04974875
C        6.48802764       0.83737784       8.00742409       46       0.02525091      -0.14742871       0.11297496
C        1.89085071       7.54947779       2.03473729       47      -0.11132231       0.22985753       0.12460221
C        4.54108276       1.93311779       1.29043449       48      -0.03257987       0.00845902       0.01131500
C        3.83743932       6.45580313       7.26302583       49       0.10791457       0.06588002       0.03689175
C        6.44600277       4.54326110      10.24479664       50       0.05227201       0.03047001       0.06797785
C        1.93078715       3.84409531       4.27293065       51      -0.05901292       0.05530161       0.06158797
C        2.67232221       3.15953445      10.02750285       52      -0.08040333      -0.13023344       0.06419186
C        5.70487613       5.22889744       4.05604243       53       0.03932120       0.10240787      -0.00681075
C        5.22431838       2.68358669       7.04317620       54       0.04975060      -0.08193411       0.01926476
C        3.15424811       5.70528550       1.07010831       55      -0.05663547       0.05033875       0.08362450
C        1.95812074       1.01083370       9.03667030       56      -0.05604740       0.11482295       0.14656879
C        6.42069073       7.37607382       3.06500711       57      -0.01137230      -0.05327624       0.14436051
C        7.37105039       1.96312546       6.05052627       58      -0.11820668      -0.02573327       0.19364290
C        1.00919134       6.42360826       0.07812948       59       0.07319796       0.03182907       0.12723446
C        5.34132523       1.10503809       0.31107601       60       0.04643071       0.06820531       0.22919226
C        3.03678613       7.28240240       6.28482777       61      -0.04711097      -0.00560340       0.14354153
C        7.27180326       5.34515212       9.26555570       62      -0.04346874      -0.04057798       0.19408858
C        1.10862982       3.04150225       3.29361053       63      -0.06727022      -0.03801453       0.12255079
N        1.76856079       2.01875014      10.06291721       64       0.07612650       0.03496268      -0.08485765
N        6.60735689       6.36847478       4.09084085       65       0.01897271      -0.01500569      -0.00795104
N        6.36319083       1.78000584       7.08019214       66       0.04066092       0.01838410      -0.07578073
N        2.01443421       6.60740785       1.10686036       67       0.03449772      -0.00973493      -0.02066369
O        6.40723712       2.21029057       2.82468368       68       0.04688215       0.08058392      -0.05952770
O        1.97407006       6.17007414       8.79704574       69      -0.12026665      -0.06778967      -0.06430739
O        6.16771752       6.40686421      11.78221641       70      -0.07275274       0.17286688      -0.06031024
O        2.20345807       1.97920680       5.81157587       71       0.07772712      -0.04866499      -0.06764087
O        6.61637579       1.23650641       0.22870082       72       0.21991411       0.18050326       0.07273473
O        1.76121922       7.15349196       6.20174543       73      -0.20484595      -0.20140964       0.10438027
O        7.14060212       6.61878453       9.18199093       74      -0.19939296       0.29142264       0.09450096
O        1.23902821       1.76598725       3.21008647       75       0.20720042      -0.19496506       0.10029794
O        0.64250022       2.73611265      11.92120922       76      -0.02122683      -0.00043546      -0.03161858
O        7.73208118       5.65269748       5.95036865       77       0.03999737      -0.08568320       0.05496410
O        5.64871342       0.65991676       8.94301686       78      -0.03338794      -0.05129036       0.02527865
O        2.72792897       7.72805140       2.97254972       79       0.03371569       0.01453473      -0.01800788
O        4.36926821       2.05030034       3.68785348       80       0.11970357       0.13888732       0.14890434
O        4.00775407       6.34866267       9.66152364       81      -0.12083238      -0.12582785       0.12835306
O        6.34509789       4.37053017       0.69924413       82      -0.12529409       0.15226576       0.10197141
O        2.04026938       4.01963724       6.66912947       83       0.13755104      -0.13679504       0.15353760
O        4.68976088       0.30766611      11.50361970       84       0.03243315      -0.07311751      -0.09215964
O        3.68456853       8.07959136       5.53016477       85      -0.04766676       0.03650247      -0.04685831
O        8.06825720       4.69547380       8.51293416       86       0.08636882       0.05870682      -0.09459929
O        0.30731299       3.68747486       2.54036207       87       0.00006542      -0.06066804      -0.03060739
88
Lattice="8.38809147 0.0 0.0 -0.0038410532716067415 8.386558480396673 0.0 -0.004309395759539946 0.0009360445525084686 11.94430563592712" Properties=species:S:1:pos:R:3:spacegroup_kinds:I:1:forces:R:3 spacegroup="P 1" unit_cell=conventional occupancy="_JSON {\"0\": {\"Cu\": 1}, \"1\": {\"Cu\": 1}, \"2\": {\"Cu\": 1}, \"3\": {\"Cu\": 1}, \"4\": {\"H\": 1}, \"5\": {\"H\": 1}, \"6\": {\"H\": 1}, \"7\": {\"H\": 1}, \"8\": {\"H\": 1}, \"9\": {\"H\": 1}, \"10\": {\"H\": 1}, \"11\": {\"H\": 1}, \"12\": {\"H\": 1}, \"13\": {\"H\": 1}, \"14\": {\"H\": 1}, \"15\": {\"H\": 1}, \"16\": {\"H\": 1}, \"17\": {\"H\": 1}, \"18\": {\"H\": 1}, \"19\": {\"H\": 1}, \"20\": {\"H\": 1}, \"21\": {\"H\": 1}, \"22\": {\"H\": 1}, \"23\": {\"H\": 1}, \"24\": {\"H\": 1}, \"25\": {\"H\": 1}, \"26\": {\"H\": 1}, \"27\": {\"H\": 1}, \"28\": {\"H\": 1}, \"29\": {\"H\": 1}, \"30\": {\"H\": 1}, \"31\": {\"H\": 1}, \"32\": {\"H\": 1}, \"33\": {\"H\": 1}, \"34\": {\"H\": 1}, \"35\": {\"H\": 1}, \"36\": {\"H\": 1}, \"37\": {\"H\": 1}, \"38\": {\"H\": 1}, \"39\": {\"H\": 1}, \"40\": {\"C\": 1}, \"41\": {\"C\": 1}, \"42\": {\"C\": 1}, \"43\": {\"C\": 1}, \"44\": {\"C\": 1}, \"45\": {\"C\": 1}, \"46\": {\"C\": 1}, \"47\": {\"C\": 1}, \"48\": {\"C\": 1}, \"49\": {\"C\": 1}, \"50\": {\"C\": 1}, \"51\": {\"C\": 1}, \"52\": {\"C\": 1}, \"53\": {\"C\": 1}, \"54\": {\"C\": 1}, \"55\": {\"C\": 1}, \"56\": {\"C\": 1}, \"57\": {\"C\": 1}, \"58\": {\"C\": 1}, \"59\": {\"C\": 1}, \"60\": {\"C\": 1}, \"61\": {\"C\": 1}, \"62\": {\"C\": 1}, \"63\": {\"C\": 1}, \"64\": {\"N\": 1}, \"65\": {\"N\": 1}, \"66\": {\"N\": 1}, \"67\": {\"N\": 1}, \"68\": {\"O\": 1}, \"69\": {\"O\": 1}, \"70\": {\"O\": 1}, \"71\": {\"O\": 1}, \"72\": {\"O\": 1}, \"73\": {\"O\": 1}, \"74\": {\"O\": 1}, \"75\": {\"O\": 1}, \"76\": {\"O\": 1}, \"77\": {\"O\": 1}, \"78\": {\"O\": 1}, \"79\": {\"O\": 1}, \"80\": {\"O\": 1}, \"81\": {\"O\": 1}, \"82\": {\"O\": 1}, \"83\": {\"O\": 1}, \"84\": {\"O\": 1}, \"85\": {\"O\": 1}, \"86\": {\"O\": 1}, \"87\": {\"O\": 1}}" energy=-539.543701171875 free_energy=-539.543701171875 stress="-0.001814587856642902 0.0001381473703077063 -0.00016067257092799991 0.0001381473703077063 -0.0016403807094320655 -0.00016451056580990553 -0.00016067257092799991 -0.00016451056580990553 0.0027436937671154737" pbc="T T T"
Cu       7.59763621       2.54130509       1.32618219        0       0.19970804      -0.05258870       0.00998995
Cu       0.77916736       5.84456733       7.30319661        1      -0.20345125       0.07536137      -0.03248190
Cu       5.83472796       7.60254565      10.28900724        2       0.07210955       0.19205207      -0.02424031
Cu       2.53883112       0.78513319       4.31790047        3      -0.08534291      -0.18395784      -0.02772158
H        0.18025414       1.01043713      10.88275778        4      -0.00673606      -0.03708300      -0.00890017
H        8.19196522       7.37899893       4.91136307        5       0.05382696       0.08665795      -0.01569425
H        7.37128504       0.19801442       7.90241650        6       0.09159506      -0.06230596      -0.00772779
H        1.00446780       8.19266342       1.92942788        7      -0.06854198       0.02953398      -0.01182401
H        3.50809179       1.57523590       1.34180288        8      -0.09559540      -0.00529202       0.01687082
H        4.86849221       6.81937916       7.31516065        9       0.03218044      -0.03396946       0.01110902
H        6.80712144       3.51395991      10.30100911       10      -0.02672330      -0.04281709      -0.00848357
H        1.56634058       4.87550357       4.32414228       11       0.01552113       0.05746900       0.01068242
H        4.53506662       2.96455412       0.88768535       12      -0.02888468      -0.07186761       0.02929579
H        3.84136610       5.42805767       6.85943789       13       0.03338282       0.00627106       0.02177573
H        5.41462273       4.53922493       9.84194672       14       0.04001686      -0.03069823       0.04032373
H        2.95940886       3.85198942       3.87301843       15      -0.01943178       0.03138296       0.02664670
H        2.40443792       3.87210978      10.80934320       16       0.06309435       0.03816251      -0.02501845
H        5.97029861       4.51512173       4.83590134       17      -0.05350488      -0.05409966       0.00356862
H        4.50869005       2.41695517       7.82483884       18      -0.01695053       0.07385945      -0.04000776
H        3.86678511       5.97068657       1.85151575       19       0.05815607      -0.04627968      -0.00136004
H        2.58492773       3.64256831       9.04485524       20       0.10160937       0.01805003       0.02707590
H        5.78987246       4.74582971       3.07274427       21      -0.08741266      -0.01298449       0.03260126
H        4.73974177       2.59558787       6.05831723       22       0.01674251       0.10773223       0.10245858
H        3.63806296       5.79167189       0.08786045       23       0.01315679      -0.09402828       0.01657018
H        3.70148511       2.80489366      10.17311699       24       0.07934963       0.03271595      -0.01108963
H        4.67173416       5.58291656       4.19860559       25      -0.00137883      -0.05537019      -0.00889848
H        5.57668277       3.71649555       7.18616513       26      -0.04471274       0.01598426      -0.01218350
H        2.79964962       4.67341320       1.21652956       27       0.05701993      -0.00637934      -0.02843700
H        1.24115890       0.19499971       9.17616934       28       0.00925120       0.03437003      -0.02315090
H        7.13374193       8.19363340       3.20266266       29       0.01294615      -0.03426644      -0.00628465
H        8.18492268       1.24772334       6.19016792       30      -0.02908075      -0.01337694      -0.00900962
H        0.19374770       7.14179133       0.21490937       31       0.02952877      -0.00081343      -0.00705016
H        2.97295006       0.60540255       9.11966440       32       0.02991018      -0.03672887      -0.08121164
H        5.40271707       7.78472736       3.14687807       33       0.03771295      -0.00024019      -0.08780676
H        7.78044833       2.97859349       6.12876948       34       0.00245825      -0.00711670      -0.08288930
H        0.59722091       5.40704138       0.15572612       35       0.01963897       0.08006133      -0.08637156
H        1.84225759       1.45567374       8.03991096       36       0.03220787      -0.10499382       0.03743089
H        6.53476379       6.93264124       2.06776053       37      -0.03442257       0.09597585       0.04484157
H        6.92321468       1.84469815       5.05585965       38       0.09424023       0.03827278       0.01903710
H        1.45023925       6.54336483      11.02758905       39      -0.07854582      -0.03763848       0.01054414
C        5.13135318       2.05714936       2.68700998       40      -0.00812101      -0.12801144      -0.21911874
C        3.24384195       6.33798569       8.65902497       41       0.09154423       0.03229073      -0.32319748
C        6.32908329       5.13633247      11.64206852       42       0.03654927      -0.16101596      -0.16740602
C        2.04709037       3.25494269       5.67049693       43      -0.08513833      -0.10704546      -0.29256693
C        0.82091204       1.89589154      10.98822612       44      -0.07381593      -0.05917805      -0.02413132
C        7.55463684       6.49393907       5.01658841       45      -0.01398769      -0.03258058       0.00180622
C        6.48688612       0.83569651       8.00886329       46      -0.02846348       0.02182892      -0.03144643
C        1.88831087       7.55211979       2.03624692       47      -0.03290898       0.05565733      -0.01435321
C        4.53837969       1.93173084       1.28903112       48      -0.00329030       0.07829584       0.06004547
C        3.83761720       6.45760519       7.26208637       49       0.06660435       0.08470221       0.04501540
C        6.44574953       4.54437782      10.24406197       50       0.03009549      -0.07336867       0.07319754
C        1.92797549       3.84542401       4.27266885       51       0.00198582       0.05760241       0.03228661
C        2.67197258       3.15850372      10.02719060       52      -0.14221406      -0.04266399       0.03806474
C        5.70488047       5.22994348       4.05564466       53       0.01265864       0.04618910      -0.00148416
C        5.22471573       2.68374450       7.04339775       54      -0.04709473      -0.06904723      -0.03532807
C        3.15351089       5.70554561       1.06960987       55      -0.08880714       0.04224022       0.04899472
C        1.95740335       1.01128527       9.03755229       56      -0.07072459       0.09475461       0.07407752
C        6.41996202       7.37560100       3.06617298       57      -0.03991884      -0.04964763       0.04439253
C        7.36901859       1.96334082       6.05159427       58      -0.08773077      -0.01317864       0.09824610
C        1.00952327       6.42483813       0.07907948       59      -0.00575933      -0.04878677       0.07081753
C        5.34055034       1.10656414       0.31353051       60       0.10520422      -0.05713078       0.03924773
C        3.03537057       7.28401727       6.28706014       61      -0.04090950       0.06664385      -0.01389607
C        7.27066411       5.34656439       9.26792655       62       0.08278887      -0.05868435       0.01149805
C        1.10750598       3.04208298       3.29478682       63      -0.14405161      -0.11502993       0.02097142
N        1.76844745       2.01855999      10.06045694       64      -0.08312546       0.06184648       0.13113262
N        6.60574582       6.36906984       4.08925986       65       0.16549391      -0.00848326       0.14988452
N        6.36208867       1.78089944       7.07727475       66       0.01952693      -0.14801010       0.16001830
N        2.01264604       6.60773195       1.10484564       67       0.10446690       0.10435832       0.16572902
O        6.40789023       2.21234553       2.82307756       68      -0.10592401       0.05309316      -0.09054428
O        1.97194881       6.16979700       8.79456454       69      -0.05340409      -0.03630477      -0.06262320
O        6.16534839       6.40830933      11.78182682       70      -0.04171167       0.04484287      -0.09623784
O        2.20328864       1.97735810       5.80888941       71       0.04400389       0.14442778      -0.08461744
O        6.61873339       1.23895728       0.23007893       72       0.02891991       0.13461915       0.07096867
O        1.75867714       7.15199878       6.20264228       73      -0.10390247      -0.16331695       0.10265554
O        7.13769143       6.62108384       9.18246201       74      -0.17126271       0.20001608       0.09746982
O        1.23908660       1.76387337       3.21139015       75       0.17271398      -0.03836596       0.09016773
O        0.64106469       2.73805651      11.92011581       76      -0.02437929       0.01834401       0.00287573
O        7.73144346       5.65266714       5.95059294       77       0.04214320       0.00164172      -0.01266062
O        5.64625429       0.66056807       8.94404732       78       0.01448549      -0.04553877      -0.02068334
O        2.72651065       7.72894241       2.97279676       79       0.01489908       0.01193205      -0.02748115
O        4.36784078       2.05237341       3.69052906       80       0.26818326       0.14053005      -0.08455691
O        4.00688375       6.34656564       9.66027708       81      -0.18160599      -0.10959871       0.04905463
O        6.34251233       4.36995697       0.70143001       82      -0.11643475       0.28187639      -0.11477669
O        2.03942776       4.01866619       6.67090963       83       0.13493909      -0.20088318       0.02409494
O        4.68880200       0.30790301      11.50168918       84       0.14550748       0.05083223       0.03435384
O        3.68326633       8.08232904       5.52833056       85      -0.13994980      -0.07628990       0.07333674
O        8.06960192       4.69640339       8.51166480       86      -0.05424540       0.16257878       0.04865567
O        0.30441579       3.68760392       2.53945833       87       0.09152062      -0.13799901       0.04507099
88
Lattice="8.38809147 0.0 0.0 -0.0038410532716067415 8.386558480396673 0.0 -0.004309395759539946 0.0009360445525084686 11.94430563592712" Properties=species:S:1:pos:R:3:spacegroup_kinds:I:1:forces:R:3 spacegroup="P 1" unit_cell=conventional occupancy="_JSON {\"0\": {\"Cu\": 1}, \"1\": {\"Cu\": 1}, \"2\": {\"Cu\": 1}, \"3\": {\"Cu\": 1}, \"4\": {\"H\": 1}, \"5\": {\"H\": 1}, \"6\": {\"H\": 1}, \"7\": {\"H\": 1}, \"8\": {\"H\": 1}, \"9\": {\"H\": 1}, \"10\": {\"H\": 1}, \"11\": {\"H\": 1}, \"12\": {\"H\": 1}, \"13\": {\"H\": 1}, \"14\": {\"H\": 1}, \"15\": {\"H\": 1}, \"16\": {\"H\": 1}, \"17\": {\"H\": 1}, \"18\": {\"H\": 1}, \"19\": {\"H\": 1}, \"20\": {\"H\": 1}, \"21\": {\"H\": 1}, \"22\": {\"H\": 1}, \"23\": {\"H\": 1}, \"24\": {\"H\": 1}, \"25\": {\"H\": 1}, \"26\": {\"H\": 1}, \"27\": {\"H\": 1}, \"28\": {\"H\": 1}, \"29\": {\"H\": 1}, \"30\": {\"H\": 1}, \"31\": {\"H\": 1}, \"32\": {\"H\": 1}, \"33\": {\"H\": 1}, \"34\": {\"H\": 1}, \"35\": {\"H\": 1}, \"36\": {\"H\": 1}, \"37\": {\"H\": 1}, \"38\": {\"H\": 1}, \"39\": {\"H\": 1}, \"40\": {\"C\": 1}, \"41\": {\"C\": 1}, \"42\": {\"C\": 1}, \"43\": {\"C\": 1}, \"44\": {\"C\": 1}, \"45\": {\"C\": 1}, \"46\": {\"C\": 1}, \"47\": {\"C\": 1}, \"48\": {\"C\": 1}, \"49\": {\"C\": 1}, \"50\": {\"C\": 1}, \"51\": {\"C\": 1}, \"52\": {\"C\": 1}, \"53\": {\"C\": 1}, \"54\": {\"C\": 1}, \"55\": {\"C\": 1}, \"56\": {\"C\": 1}, \"57\": {\"C\": 1}, \"58\": {\"C\": 1}, \"59\": {\"C\": 1}, \"60\": {\"C\": 1}, \"61\": {\"C\": 1}, \"62\": {\"C\": 1}, \"63\": {\"C\": 1}, \"64\": {\"N\": 1}, \"65\": {\"N\": 1}, \"66\": {\"N\": 1}, \"67\": {\"N\": 1}, \"68\": {\"O\": 1}, \"69\": {\"O\": 1}, \"70\": {\"O\": 1}, \"71\": {\"O\": 1}, \"72\": {\"O\": 1}, \"73\": {\"O\": 1}, \"74\": {\"O\": 1}, \"75\": {\"O\": 1}, \"76\": {\"O\": 1}, \"77\": {\"O\": 1}, \"78\": {\"O\": 1}, \"79\": {\"O\": 1}, \"80\": {\"O\": 1}, \"81\": {\"O\": 1}, \"82\": {\"O\": 1}, \"83\": {\"O\": 1}, \"84\": {\"O\": 1}, \"85\": {\"O\": 1}, \"86\": {\"O\": 1}, \"87\": {\"O\": 1}}" energy=-539.558349609375 free_energy=-539.558349609375 stress="-0.001978111919015646 0.00012915130355395377 -0.00010213272616965696 0.00012915130355395377 -0.001677067601121962 -9.06098557607038e-06 -0.00010213272616965696 -9.06098557607038e-06 0.002168283797800541" pbc="T T T"
Cu       7.59976300       2.54111678       1.32698838        0       0.16844594      -0.05517966       0.01007380
Cu       0.77624299       5.84730829       7.30296117        1      -0.20513907       0.05966401      -0.02854495
Cu       5.83661851       7.60495649      10.28837004        2       0.05697855       0.20070884      -0.02755535
Cu       2.53609970       0.78407195       4.31736625        3      -0.07153812      -0.17943501      -0.01579364
H        0.17782176       1.01041973      10.88121332        4       0.00961493      -0.00576433      -0.00369646
H        8.19198244       7.38189637       4.91013040        5       0.02743727       0.04714245      -0.00866482
H        7.36982060       0.19728412       7.90029507        6       0.03985702      -0.02578697       0.00768159
H        1.00357974       8.19424830       1.92774891        7      -0.10445188       0.05603564      -0.01701152
H        3.50539937       1.57638356       1.33987870        8      -0.05756220       0.00277518       0.01558063
H        4.86649621       6.82148063       7.31418318        9       0.08425725      -0.02349609       0.01505303
H        6.80578845       3.51484358      10.29997575       10      -0.00064717      -0.10287291      -0.00164811
H        1.56544636       4.87757768       4.32275763       11       0.00956080       0.04981650       0.01620986
H        4.53308352       2.96561412       0.88733201       12      -0.02062097      -0.07190399       0.02244931
H        3.83997149       5.42988169       6.85823140       13       0.03961354      -0.00669567       0.01713355
H        5.41458551       4.53869121       9.84097892       14       0.02486615      -0.02972219       0.03762950
H        2.95782171       3.85401462       3.87124073       15      -0.03465341       0.02698625       0.03105652
H        2.40413074       3.87359304      10.80757188       16       0.05466547       0.04925597      -0.00952084
H        5.96783286       4.51328528       4.83498540       17      -0.06175613      -0.02018198      -0.03079598
H        4.50765160       2.41867146       7.82264150       18      -0.04744214       0.05668015      -0.00361522
H        3.86615180       5.97053850       1.85159264       19       0.04548568      -0.05539333      -0.02275232
H        2.58640747       3.64375268       9.04461384       20       0.07944115       0.01256566       0.01498256
H        5.78697318       4.74463239       3.07179010       21      -0.07540908       0.00915759       0.04175412
H        4.73866685       2.59699357       6.05889394       22      -0.00096583       0.08968684       0.05114125
H        3.63816381       5.78971051       0.08673312       23      -0.00476929      -0.07437854       0.03622513
H        3.70081259       2.80606949      10.17209756       24       0.03552175       0.03574667      -0.00933989
H        4.67030538       5.58142344       4.19839058       25      -0.00509489      -0.03428447      -0.00854525