71
Lattice="7.95592356 0.0 0.0 -1.847419224934361 9.335149752671475 0.0 -1.407317561357967 -0.3850447260962999 9.967965336600097" Properties=species:S:1:pos:R:3:spacegroup_kinds:I:1:forces:R:3 spacegroup="P 1" unit_cell=conventional occupancy="_JSON {\"0\": {\"Cd\": 1}, \"1\": {\"Cd\": 1}, \"2\": {\"Cd\": 1}, \"3\": {\"H\": 1}, \"4\": {\"H\": 1}, \"5\": {\"H\": 1}, \"6\": {\"H\": 1}, \"7\": {\"H\": 1}, \"8\": {\"H\": 1}, \"9\": {\"H\": 1}, \"10\": {\"H\": 1}, \"11\": {\"H\": 1}, \"12\": {\"H\": 1}, \"13\": {\"H\": 1}, \"14\": {\"H\": 1}, \"15\": {\"H\": 1}, \"16\": {\"H\": 1}, \"17\": {\"H\": 1}, \"18\": {\"H\": 1}, \"19\": {\"H\": 1}, \"20\": {\"H\": 1}, \"21\": {\"H\": 1}, \"22\": {\"H\": 1}, \"23\": {\"H\": 1}, \"24\": {\"H\": 1}, \"25\": {\"H\": 1}, \"26\": {\"H\": 1}, \"27\": {\"H\": 1}, \"28\": {\"H\": 1}, \"29\": {\"H\": 1}, \"30\": {\"H\": 1}, \"31\": {\"H\": 1}, \"32\": {\"H\": 1}, \"33\": {\"C\": 1}, \"34\": {\"C\": 1}, \"35\": {\"C\": 1}, \"36\": {\"C\": 1}, \"37\": {\"C\": 1}, \"38\": {\"C\": 1}, \"39\": {\"C\": 1}, \"40\": {\"C\": 1}, \"41\": {\"C\": 1}, \"42\": {\"C\": 1}, \"43\": {\"C\": 1}, \"44\": {\"C\": 1}, \"45\": {\"C\": 1}, \"46\": {\"C\": 1}, \"47\": {\"C\": 1}, \"48\": {\"C\": 1}, \"49\": {\"C\": 1}, \"50\": {\"C\": 1}, \"51\": {\"N\": 1}, \"52\": {\"N\": 1}, \"53\": {\"N\": 1}, \"54\": {\"N\": 1}, \"55\": {\"N\": 1}, \"56\": {\"N\": 1}, \"57\": {\"N\": 1}, \"58\": {\"N\": 1}, \"59\": {\"N\": 1}, \"60\": {\"N\": 1}, \"61\": {\"N\": 1}, \"62\": {\"N\": 1}, \"63\": {\"N\": 1}, \"64\": {\"N\": 1}, \"65\": {\"Cl\": 1}, \"66\": {\"Cl\": 1}, \"67\": {\"Cl\": 1}, \"68\": {\"Cl\": 1}, \"69\": {\"Cl\": 1}, \"70\": {\"Cl\": 1}}" energy=-418.7012634277344 free_energy=-418.7012634277344 stress="-0.005118892062455416 -0.00018836748495232314 -0.0009964926866814494 -0.00018836748495232314 -0.006241968367248774 -0.004014624748378992 -0.0009964926866814494 -0.004014624748378992 -0.004146831575781107" pbc="T T T"
Cd       2.35057382       4.47506125       4.98396972        0      -0.00259481       0.00009891      -0.00168990
Cd       2.26869522       6.68169629       1.69930333        1       0.40416723       0.03658304       1.26490355
Cd       2.43123360       2.27032990       8.26867081        2      -0.40844646      -0.04435542      -1.26743698
H        4.64106819       8.21405322       3.13617493        3       0.03234145      -0.00127958      -0.00797601
H        0.05810391       0.73724280       6.83018733        4      -0.00573323      -0.02641222       0.01570760
H       -1.07170494       3.29905459       3.91502164        5       0.10693122      -0.11551043      -0.04553648
H        5.77086509       5.65277582       6.05252272        6      -0.05422089       0.10820174       0.03851805
H        5.28039976       3.96066345       3.95141517        7      -0.07329068      -0.19850713      -0.08848872
H       -0.58115947       4.99073250       6.01593072        8       0.12265854       0.13191748       0.09395114
H        0.76209884       1.77492210       3.76833940        9       0.04718757       0.04830180      -0.02945465
H        3.93840831       7.17516663       6.19708350       10      -0.04570228      -0.06150498       0.02815817
H       -1.35057948       8.60291327       3.71451786       11      -0.04964304       0.04273882       0.02072192
H        6.05110895       0.34806663       6.25147271       12      -0.00195798      -0.03286883       0.02159458
H        0.09258237       7.58518725       3.55589443       13      -0.06130825      -0.07238697       0.11386813
H        4.60641460       1.36459511       6.41267976       14       0.05822469       0.07778487      -0.11502489
H       -1.35803879       7.25586290       1.63904385       15      -0.03803231      -0.13271882      -0.14566402
H        6.05670343       1.69536086       8.32887680       16       0.03611986       0.11518535       0.14077610
H       -1.40403674       8.98737784       1.26841418       17       0.05265333       0.08462316      -0.07480150
H        6.10388194      -0.03898826       8.69854028       18      -0.08064628      -0.03976159       0.06074114
H        0.79599459       8.98916761       0.68982046       19      -0.06474694       0.11960624      -0.01524839
H        3.90317087      -0.03903254       9.27878687       20       0.07651512      -0.09719932      -0.00191776
H       -0.43584192       7.37102025       8.82945724       21      -0.08663392       0.03620625      -0.19202788
H        5.13462224       1.57998767       1.13804555       22       0.10720050      -0.04010887       0.17668116
H       -2.19239804       7.44991458       9.08717308       23       0.00834452       0.04648983       0.01026503
H        6.89399436       1.50196306       0.87863817       24      -0.03610605      -0.04930452      -0.01159845
H       -0.60164144       5.63858368       0.40535600       25      -0.00771317      -0.01695116       0.01730746
H        5.30204671       3.31179251       9.56132662       26      -0.00057580       0.00223354      -0.00835866
H       -1.71195917       5.14795818       8.62505880       27       0.02836232      -0.13855062      -0.11436681
H        6.41217393       3.80136015       1.34131364       28      -0.02820928       0.12703227       0.10444244
H        0.63210286       5.04412197       9.09852949       29      -0.04215580      -0.18115267      -0.21709290
H        4.06854478       3.90441599       0.86904803       30       0.05071601       0.18861893       0.20668814
H        1.34215898       4.35255610       0.16484582       31      -0.10941264      -0.04358878      -0.23859595
H        3.35865808       4.59719789       9.80143493       32       0.10964347       0.02480186       0.25077149
C        3.92266863       9.01728795       3.28914371       33       0.33074898       0.16003007      -0.12693274
C        0.77813880      -0.06674180       6.68069849       34      -0.42574245      -0.18555102       0.06299035
C        3.62762058       0.32667047       3.36170698       35       0.06395003       0.02675098      -0.14337087
C        1.07332336       8.62269024       6.60536845       36      -0.10018429       0.07345396       0.16189593
C        3.98723055       1.64128874       3.72085328       37       0.20560381       0.10925317      -0.06170715
C        0.71378234       7.30923791       6.24632720       38      -0.32025549      -0.08616242       0.08560975
C        5.37661127       1.91957214       3.78215989       39      -0.04193206      -0.39875135      -0.21044159
C       -0.67788533       7.03109995       6.18740079       40       0.09935968       0.39762360       0.17853545
C        1.82376827       1.54568398       3.68729740       41      -0.01756862      -0.12950185       0.01243652
C        2.87670239       7.40283415       6.27929100       42      -0.03784081       0.20808020       0.00751789
C       -0.43227341       8.45094816       3.13709098       43       0.14450857       0.05423841      -0.01826659
C        5.13144737       0.49891224       6.83137159       44      -0.06995127      -0.02748474      -0.04918885
C       -0.77051491       8.18392783       1.67828802       45      -0.00939056      -0.11594903       0.11472175
C        5.46934902       0.76658690       8.28907093       46       0.08047760       0.07689210      -0.09554558
C       -1.24700528       7.06436616       9.50325243       47       0.05172578       0.26875281       0.15394774
C        5.94651444       1.88569008       0.46355455       48      -0.02799301      -0.29255712      -0.14351144
C       -1.31290626       5.54177505       9.57085674       49       0.01608381       0.09702486      -0.05298398
C        6.01273943       3.40652060       0.39536082       50       0.02597341      -0.03184160       0.07523413
N        6.24375510       0.87946381       3.60507859       51       0.12062499      -0.14251253       0.13689613
N       -1.54554753       8.07040176       6.36067850       52      -0.06660140       0.21552914      -0.08055082
N        2.63282152       8.65324531       3.11707970       53      -0.21913216      -0.15097164       0.04246244
N        2.06639182       0.29823719       6.85035977       54       0.29729271       0.07437696      -0.03941633
N        5.88726386       3.13886822       3.99662254       55      -0.07450894       0.57496226       0.24863204
N       -1.18641970       5.81117154       5.97353551       56      -0.04348300      -0.50914282      -0.24587736
N        2.82676457       2.38640336       3.92545509       57       0.02677126       0.50391239       0.04690484
N        1.87101115       6.56366833       6.04232270       58       0.08581412      -0.51922190      -0.05400566
N        2.24865077       0.29404559       3.35180177       59      -0.67937475      -0.02455896       0.12446275
N        2.45236130       8.65741285       6.61495881       60       0.64554685      -0.11834621      -0.15108970
N        0.44196252       8.03208714       0.85608039       61      -0.39938855      -0.53241181      -0.27951291
N        4.25848016       0.91804811       9.11040615       62       0.33990443       0.50176686       0.32536674
N        0.00419401       4.96963005       9.90743545       63      -0.01135013       0.06548251       0.12968841
N        4.69750406       3.97996133       0.06064576       64      -0.03415979      -0.04730117      -0.14197172
Cl       4.08962303       5.64168012       3.29190682       65      -0.41657135       0.09031288      -0.23879845
Cl       0.61147316       3.30923498       6.67554176       66       0.41554648      -0.09047533       0.24095708
Cl       0.56108005       5.00120275       3.14761702       67       0.20600599      -0.08430909      -0.11867224
Cl       4.13942983       3.94748356       6.82094416       68      -0.20579731       0.08866180       0.11586021
Cl       2.61639375       7.05791325       9.89993464       69       0.23408350      -0.18080942      -0.10806252
Cl       2.08453739       1.89087986       0.06861192       70      -0.23273295       0.18249351       0.10597129
71
Lattice="7.95592356 0.0 0.0 -1.847419224934361 9.335149752671475 0.0 -1.407317561357967 -0.3850447260962999 9.967965336600097" Properties=species:S:1:pos:R:3:spacegroup_kinds:I:1:forces:R:3 spacegroup="P 1" unit_cell=conventional occupancy="_JSON {\"0\": {\"Cd\": 1}, \"1\": {\"Cd\": 1}, \"2\": {\"Cd\": 1}, \"3\": {\"H\": 1}, \"4\": {\"H\": 1}, \"5\": {\"H\": 1}, \"6\": {\"H\": 1}, \"7\": {\"H\": 1}, \"8\": {\"H\": 1}, \"9\": {\"H\": 1}, \"10\": {\"H\": 1}, \"11\": {\"H\": 1}, \"12\": {\"H\": 1}, \"13\": {\"H\": 1}, \"14\": {\"H\": 1}, \"15\": {\"H\": 1}, \"16\": {\"H\": 1}, \"17\": {\"H\": 1}, \"18\": {\"H\": 1}, \"19\": {\"H\": 1}, \"20\": {\"H\": 1}, \"21\": {\"H\": 1}, \"22\": {\"H\": 1}, \"23\": {\"H\": 1}, \"24\": {\"H\": 1}, \"25\": {\"H\": 1}, \"26\": {\"H\": 1}, \"27\": {\"H\": 1}, \"28\": {\"H\": 1}, \"29\": {\"H\": 1}, \"30\": {\"H\": 1}, \"31\": {\"H\": 1}, \"32\": {\"H\": 1}, \"33\": {\"C\": 1}, \"34\": {\"C\": 1}, \"35\": {\"C\": 1}, \"36\": {\"C\": 1}, \"37\": {\"C\": 1}, \"38\": {\"C\": 1}, \"39\": {\"C\": 1}, \"40\": {\"C\": 1}, \"41\": {\"C\": 1}, \"42\": {\"C\": 1}, \"43\": {\"C\": 1}, \"44\": {\"C\": 1}, \"45\": {\"C\": 1}, \"46\": {\"C\": 1}, \"47\": {\"C\": 1}, \"48\": {\"C\": 1}, \"49\": {\"C\": 1}, \"50\": {\"C\": 1}, \"51\": {\"N\": 1}, \"52\": {\"N\": 1}, \"53\": {\"N\": 1}, \"54\": {\"N\": 1}, \"55\": {\"N\": 1}, \"56\": {\"N\": 1}, \"57\": {\"N\": 1}, \"58\": {\"N\": 1}, \"59\": {\"N\": 1}, \"60\": {\"N\": 1}, \"61\": {\"N\": 1}, \"62\": {\"N\": 1}, \"63\": {\"N\": 1}, \"64\": {\"N\": 1}, \"65\": {\"Cl\": 1}, \"66\": {\"Cl\": 1}, \"67\": {\"Cl\": 1}, \"68\": {\"Cl\": 1}, \"69\": {\"Cl\": 1}, \"70\": {\"Cl\": 1}}" energy=-418.74951171875 free_energy=-418.74951171875 stress="-0.00384927773848176 0.00023569722543470562 -0.0010229465551674366 0.00023569722543470562 -0.005343530792742968 -0.004108569119125605 -0.0010229465551674366 -0.004108569119125605 -0.003733486169949174" pbc="T T T"
Cd       2.35029771       4.47526539       4.98367032        0      -0.00087814       0.00006814      -0.00239729
Cd       2.27161000       6.68313507       1.70230333        1       0.36679339       0.03953707       1.22413266
Cd       2.42823980       2.27203678       8.26567097        2      -0.38004321      -0.05464354      -1.23422110
H        4.64086515       8.21383758       3.13554487        3       0.03023425       0.00922786      -0.00302276
H        0.05684405       0.73768215       6.82908869        4       0.02008113      -0.04502803       0.00872815
H       -1.07205357       3.29714433       3.91444361        5       0.02296364      -0.08631101      -0.03735849
H        5.76853633       5.65487048       6.05174508        6      -0.02271254       0.07906492       0.03632512
H        5.27800802       3.95883626       3.94972794        7      -0.14383350      -0.07677245      -0.09555447
H       -0.58121190       4.99322894       6.01725903        8       0.16952464       0.01526257       0.09742681
H        0.76138239       1.77710729       3.76706875        9       0.09632498       0.01949799      -0.03656024
H        3.93684270       7.17436278       6.19742793       10      -0.08307108      -0.04331926       0.03480992
H       -1.35225125       8.60379992       3.71374256       11      -0.01233166       0.03675797      -0.00070100
H        6.05054053       0.34771253       6.24971603       12      -0.02571407      -0.01798788       0.04784972
H        0.09076463       7.58498972       3.55749545       13      -0.05369888      -0.05124178       0.10557053
H        4.60769259       1.36568253       6.41105530       14       0.02743016       0.08238642      -0.12340555
H       -1.36026282       7.25470883       1.63649347       15      -0.03003488      -0.10733509      -0.11604828
H        6.05731788       1.69740367       8.33079569       16       0.02875118       0.09327956       0.11175993
H       -1.40325471       8.98927662       1.26605241       17       0.09299777       0.01942293      -0.03022953
H        6.10198192      -0.03850991       8.69957111       18      -0.09468178      -0.01087193       0.02921251
H        0.79337965       8.99141011       0.69054270       19      -0.10440052      -0.03168782       0.01575394
H        3.90326542      -0.04119064       9.27767249       20       0.12283065       0.05896258      -0.02522678
H       -0.43810759       7.37220776       8.82662603       21      -0.06620925       0.04836199      -0.15978757
H        5.13608739       1.58131858       1.13936879       22       0.06270963      -0.06714609       0.17180459
H       -2.19394448       7.45155466       9.08581331       23       0.07014965       0.02744378       0.05097251
H        6.89332496       1.50266043       0.87842312       24      -0.05856115      -0.04996615      -0.02841497
H       -0.60311777       5.63911116       0.40501112       25       0.01089275       0.00383114      -0.02012825
H        5.30168884       3.31189054       9.56059009       26      -0.00938725      -0.00802516       0.01891582
H       -1.71247712       5.14636345       8.62259712       27       0.04787470      -0.09855977      -0.06527510
H        6.41186994       3.80394845       1.34283923       28      -0.05084184       0.09125911       0.05962791
H        0.62980112       5.04121427       9.09608021       29      -0.08612309      -0.17021604      -0.13971432
H        4.07036660       3.90417600       0.87145764       30       0.08529241       0.20035380       0.12468205
H        1.34004455       4.35161082       0.16268210       31      -0.11975482      -0.01912519      -0.22595294
H        3.36119382       4.59889228       9.80344188       32       0.09570788       0.00153051       0.24987352
C        3.92531972       9.01996494       3.28924731       33       0.13864502      -0.07561564      -0.18116397
C        0.77518479      -0.06931117       6.67936690       34      -0.27048752       0.06709746       0.12774950
C        3.62801567       0.32558926       3.35925317       35      -0.04243845       0.14443380      -0.08732596
C        1.07206821       8.62418883       6.60736396       36      -0.00259727      -0.06504208       0.09788436
C        3.98825716       1.64242117       3.71974781       37       0.06342939       0.05635360      -0.06888503
C        0.71086748       7.30763807       6.24734383       38      -0.15477270      -0.02064994       0.10116486
C        5.37546300       1.91666245       3.78102788       39       0.01410699      -0.09731850      -0.14411610
C       -0.67788976       7.03234718       6.18973536       40      -0.02646630       0.19464380       0.09896386
C        1.82392921       1.54358904       3.68625722       41      -0.09181857       0.10318547       0.08874491
C        2.87440871       7.40504500       6.28043794       42       0.08167982      -0.05023804      -0.09580666
C       -0.43136549       8.45246070       3.13729209       43       0.04400107      -0.00763062       0.00616977
C        5.12946734       0.49897188       6.82979267       44       0.03226545      -0.02981225      -0.05340770
C       -0.77104604       8.18248497       1.67967172       45      -0.08259359      -0.07164351       0.03506627
C        5.46898868       0.76859966       8.28686658       46       0.11084205       0.06079461      -0.01438588
C       -1.24623459       7.06700101       9.50470690       47      -0.07813299       0.19607285       0.02791059
C        5.94435793       1.88345165       0.46087029       48       0.10581586      -0.15626504       0.00375608
C       -1.31393655       5.54392197       9.56939113       49      -0.01657179       0.03607847      -0.04047677
C        6.01273152       3.40585586       0.39602334       50       0.02748892      -0.00687616       0.04983716
N        6.24416900       0.87802227       3.60507801       51       0.16074970      -0.00969917       0.15437868
N       -1.54833350       8.07286699       6.35918641       52      -0.03400737       0.04676011      -0.09117962
N        2.63018330       8.65255586       3.11809290       53      -0.01435778      -0.12175626       0.03998698
N        2.06887808       0.29945861       6.85007150       54       0.07867966       0.02431029      -0.05144984
N        5.88457932       3.14181601       3.99898699       55       0.05651635       0.21053591       0.20975721
N       -1.18761813       5.80866199       5.97131709       56      -0.07437430      -0.18436873      -0.20759770
N        2.82501081       2.38933022       3.92715697       57       0.08997136       0.32471186      -0.02220016
N        1.87144225       6.56067481       6.04032186       58       0.00242186      -0.35166079       0.02391863
N        2.24584612       0.29537028       3.35186437       59      -0.50303304      -0.12199655       0.08305231
N        2.45471865       8.65579019       6.61209319       60       0.42421585       0.05435815      -0.06932980
N        0.43924364       8.02914729       0.85569422       61      -0.25854900      -0.30649081      -0.24090241
N        4.26040934       0.92091476       9.11282679       62       0.19919935       0.25569418       0.18307297
N        0.00234415       4.97001910       9.90868987       63       0.05097828       0.05957049       0.03883886
N        4.69654587       3.98021607       0.05797028       64      -0.03984861      -0.05839908      -0.03774282
Cl       4.08678662       5.64451140       3.28930790       65      -0.39335367       0.07744865      -0.22601379
Cl       0.61393807       3.30741500       6.67666661       66       0.39184090      -0.07808873       0.23140737
Cl       0.56304233       4.99856575       3.14658958       67       0.19826739      -0.07815596      -0.12159543
Cl       4.13727981       3.94905353       6.82261780       68      -0.20044494       0.08599725       0.11530890
Cl       2.61917193       7.05552991       9.89970412       69       0.22465846      -0.17445073      -0.10732983
Cl       2.08168295       1.89036300       0.06894590       70      -0.22020775       0.18010132       0.10049364
71
Lattice="7.95592356 0.0 0.0 -1.847419224934361 9.335149752671475 0.0 -1.407317561357967 -0.3850447260962999 9.967965336600097" Properties=species:S:1:pos:R:3:spacegroup_kinds:I:1:forces:R:3 spacegroup="P 1" unit_cell=conventional occupancy="_JSON {\"0\": {\"Cd\": 1}, \"1\": {\"Cd\": 1}, \"2\": {\"Cd\": 1}, \"3\": {\"H\": 1}, \"4\": {\"H\": 1}, \"5\": {\"H\": 1}, \"6\": {\"H\": 1}, \"7\": {\"H\": 1}, \"8\": {\"H\": 1}, \"9\": {\"H\": 1}, \"10\": {\"H\": 1}, \"11\": {\"H\": 1}, \"12\": {\"H\": 1}, \"13\": {\"H\": 1}, \"14\": {\"H\": 1}, \"15\": {\"H\": 1}, \"16\": {\"H\": 1}, \"17\": {\"H\": 1}, \"18\": {\"H\": 1}, \"19\": {\"H\": 1}, \"20\": {\"H\": 1}, \"21\": {\"H\": 1}, \"22\": {\"H\": 1}, \"23\": {\"H\": 1}, \"24\": {\"H\": 1}, \"25\": {\"H\": 1}, \"26\": {\"H\": 1}, \"27\": {\"H\": 1}, \"28\": {\"H\": 1}, \"29\": {\"H\": 1}, \"30\": {\"H\": 1}, \"31\": {\"H\": 1}, \"32\": {\"H\": 1}, \"33\": {\"C\": 1}, \"34\": {\"C\": 1}, \"35\": {\"C\": 1}, \"36\": {\"C\": 1}, \"37\": {\"C\": 1}, \"38\": {\"C\": 1}, \"39\": {\"C\": 1}, \"40\": {\"C\": 1}, \"41\": {\"C\": 1}, \"42\": {\"C\": 1}, \"43\": {\"C\": 1}, \"44\": {\"C\": 1}, \"45\": {\"C\": 1}, \"46\": {\"C\": 1}, \"47\": {\"C\": 1}, \"48\": {\"C\": 1}, \"49\": {\"C\": 1}, \"50\": {\"C\": 1}, \"51\": {\"N\": 1}, \"52\": {\"N\": 1}, \"53\": {\"N\": 1}, \"54\": {\"N\": 1}, \"55\": {\"N\": 1}, \"56\": {\"N\": 1}, \"57\": {\"N\": 1}, \"58\": {\"N\": 1}, \"59\": {\"N\": 1}, \"60\": {\"N\": 1}, \"61\": {\"N\": 1}, \"62\": {\"N\": 1}, \"63\": {\"N\": 1}, \"64\": {\"N\": 1}, \"65\": {\"Cl\": 1}, \"66\": {\"Cl\": 1}, \"67\": {\"Cl\": 1}, \"68\": {\"Cl\": 1}, \"69\": {\"Cl\": 1}, \"70\": {\"Cl\": 1}}" energy=-418.7847900390625 free_energy=-418.7847900390625 stress="-0.0029961857944726944 0.0005305223166942596 -0.001079790759831667 0.0005305223166942596 -0.0037582763470709324 -0.003828945104032755 -0.001079790759831667 -0.003828945104032755 -0.003556786337867379" pbc="T T T"
Cd       2.35011216       4.47547238       4.98344113        0      -0.00145646      -0.00058727      -0.00231557
Cd       2.27262504       6.68200322       1.70530325        1       0.33594447       0.05101091       1.18370080
Cd       2.42526294       2.27348226       8.26267142        2      -0.34957463      -0.07286400      -1.20032763
H        4.64132217       8.21371426       3.13440976        3       0.06338225      -0.02206741      -0.01391922
H        0.05545748       0.73777458       6.82805052        4      -0.00936941      -0.00422159       0.02336893
H       -1.07230171       3.29604280       3.91190537        5       0.05641291      -0.05330895      -0.04074101
H        5.76700000       5.65651147       6.05094241        6      -0.05552246       0.04038294       0.03788165
H        5.27548361       3.95845821       3.94699533        7      -0.12258220      -0.05962411      -0.09686902
H       -0.58045336       4.99471564       6.01849644        8       0.16596252      -0.02787691       0.09930297
H        0.76184161       1.77739643       3.76622402        9       0.00360304       0.04679896      -0.02677180
H        3.93431402       7.17376313       6.19894598       10       0.00102571      -0.07169771       0.02209803
H       -1.35345844       8.60555733       3.71223592       11       0.01009724       0.02303539      -0.01444527
H        6.04997536       0.34706947       6.24962267       12       0.02078648      -0.01454987       0.02083761
H        0.08950495       7.58485432       3.55865629       13      -0.06065495      -0.04959597       0.08877967
H        4.60730676       1.36683563       6.40823478       14       0.05149786       0.04895083      -0.09855077
H       -1.36186991       7.25306832       1.63448235       15      -0.02935839      -0.07683051      -0.10104394
H        6.05877794       1.69860081       8.33301396       16       0.02902599       0.07606605       0.09716105
H       -1.40284719       8.99092641       1.26535183       17       0.08928119       0.00565585      -0.02233943
H        6.09918362      -0.03828877       8.69941813       18      -0.06270752      -0.03546694       0.03838787
H        0.79070532       8.99007197       0.69209174       19      -0.09126008      -0.04237916       0.00809345
H        3.90371276      -0.04112229       9.27508291       20       0.13757452       0.13357060      -0.02938641
H       -0.43983473       7.37449385       8.82374505       21      -0.10309841       0.03031687      -0.11103115
H        5.13660444       1.58123698       1.14066804       22       0.06164527      -0.07518522       0.15148048
H       -2.19368344       7.45258590       9.08548208       23       0.00284717       0.05366527       0.03061058
H        6.89042282       1.50305759       0.87644161       24       0.04286152      -0.08769315       0.01535858
H       -0.60397243       5.63990576       0.40372754       25       0.00352218       0.00332887      -0.02423802
H        5.30057164       3.31151132       9.55963831       26      -0.01130254      -0.00611917       0.03322957
H       -1.71159940       5.14428083       8.62059798       27       0.04317821      -0.07863222      -0.05437846
H        6.40947616       3.80437936       1.34325043       28      -0.05409579       0.09147268       0.04978166
H        0.62758776       5.03847276       9.09422809       29      -0.08375518      -0.15090548      -0.13474202
H        4.07122730       3.90611244       0.87258237       30       0.09977763       0.19564635       0.08076595
H        1.33736854       4.34927314       0.15985422       31      -0.11336250       0.09432222      -0.23394470
H        3.36281629       4.59859187       9.80609644       32       0.09186654       0.06408089       0.22107923
C        3.92764582       9.01971625       3.28670519       33      -0.02320462      -0.07906312      -0.14833826
C        0.77229893      -0.06872242       6.68055829       34      -0.15038532       0.06771410       0.08437314
C        3.62738777       0.32706461       3.35873074       35      -0.04525650       0.00482553      -0.10883591
C        1.07143123       8.62437348       6.60760641       36       0.04961208      -0.05220866       0.08224249
C        3.98892848       1.64422375       3.71873718       37      -0.04319856      -0.01319647      -0.08604087
C        0.70794568       7.30726883       6.24817283       38      -0.03328916      -0.01154879       0.10380155
C        5.37469632       1.91470791       3.77845053       39       0.14252360       0.12484050      -0.06571044
C       -0.68030756       7.03364720       6.19163074       40      -0.05850516       0.06679855       0.03228171
C        1.82149328       1.54426364       3.68614218       41       0.15171854       0.07825960       0.09168006
C        2.87436898       7.40417714       6.28006936       42      -0.07331702      -0.05255049      -0.10242927
C       -0.43115579       8.45273390       3.13620223       43      -0.03609377      -0.07291268       0.04108277
C        5.12982870       0.49904357       6.82777559       44       0.01129022       0.06006347       0.01284021
C       -0.77335090       8.18207886       1.67980017       45      -0.05898011      -0.10470632      -0.01301742
C        5.46996365       0.76977172       8.28670060       46       0.08104637       0.10276482      -0.04167209
C       -1.24848336       7.06899145       9.50442948       47       0.01396291       0.12778544      -0.06099802
C        5.94438447       1.88125411       0.46020866       48       0.02387264       0.00151382       0.04563379
C       -1.31599857       5.54543893       9.56746887       49       0.02737933       0.01278701      -0.03462334
C        6.01161540       3.40617225       0.39576372       50       0.02190590      -0.04867223       0.03889184
N        6.24539904       0.87731770       3.60626257       51       0.12860006      -0.02165699       0.11036821
N       -1.55070021       8.07487519       6.35698569       52      -0.03753084       0.00512102      -0.05573398
N        2.62897820       8.65002644       3.11769833       53       0.05719479       0.04458116       0.06529840
N        2.06860893       0.30071439       6.84799910       54       0.02676530      -0.01672535      -0.03101368
N        5.88517286       3.14414601       4.00050912       55      -0.06160544      -0.01353464       0.17554154
N       -1.18972716       5.80667315       5.96904285       56      -0.00663278       0.02979738      -0.17928728
N        2.82542502       2.39209917       3.92801774       57      -0.01796277       0.17991820      -0.07731074
N        1.87007631       6.55775923       6.03892769       58       0.01840861      -0.19214815       0.08528244
N        2.24302841       0.29263098       3.35215089       59      -0.35819453       0.12742168       0.12140077
N        2.45771023       8.65729083       6.61120211       60       0.22979593      -0.09413266      -0.09408858
N        0.43680204       8.02691580       0.85313562       61      -0.24285501      -0.23550387      -0.13419901
N        4.26242076       0.92350036       9.11469642       62       0.11645271       0.10787459       0.07022588
N        0.00198498       4.97148754       9.90870925       63       0.01360321      -0.04443012       0.04223946
N        4.69459479       3.98081902       0.05526826       64      -0.03007372      -0.13923432       0.04975387
Cl       4.08383206       5.64637666       3.28778565       65      -0.37013873       0.06525226      -0.21303320
Cl       0.61689365       3.30731370       6.67914179       66       0.36555603      -0.06679653       0.21710935
Cl       0.56483409       4.99696185       3.14483794       67       0.19176114      -0.07556012      -0.12151354
Cl       4.13450214       3.94851032       6.82477750       68      -0.19335075       0.08604032       0.11147775