112
Lattice="9.63197794 0.0 0.0 1.6240740294857616 9.777360529052332 0.0 4.060944788742931 2.2684844850588077 11.720648749607989" Properties=species:S:1:pos:R:3:spacegroup_kinds:I:1:forces:R:3 spacegroup="P 1" unit_cell=conventional occupancy="_JSON {\"0\": {\"Zn\": 1}, \"1\": {\"Zn\": 1}, \"2\": {\"H\": 1}, \"3\": {\"H\": 1}, \"4\": {\"H\": 1}, \"5\": {\"H\": 1}, \"6\": {\"H\": 1}, \"7\": {\"H\": 1}, \"8\": {\"H\": 1}, \"9\": {\"H\": 1}, \"10\": {\"H\": 1}, \"11\": {\"H\": 1}, \"12\": {\"H\": 1}, \"13\": {\"H\": 1}, \"14\": {\"H\": 1}, \"15\": {\"H\": 1}, \"16\": {\"H\": 1}, \"17\": {\"H\": 1}, \"18\": {\"H\": 1}, \"19\": {\"H\": 1}, \"20\": {\"H\": 1}, \"21\": {\"H\": 1}, \"22\": {\"H\": 1}, \"23\": {\"H\": 1}, \"24\": {\"H\": 1}, \"25\": {\"H\": 1}, \"26\": {\"H\": 1}, \"27\": {\"H\": 1}, \"28\": {\"H\": 1}, \"29\": {\"H\": 1}, \"30\": {\"H\": 1}, \"31\": {\"H\": 1}, \"32\": {\"H\": 1}, \"33\": {\"H\": 1}, \"34\": {\"H\": 1}, \"35\": {\"H\": 1}, \"36\": {\"H\": 1}, \"37\": {\"H\": 1}, \"38\": {\"H\": 1}, \"39\": {\"H\": 1}, \"40\": {\"H\": 1}, \"41\": {\"H\": 1}, \"42\": {\"H\": 1}, \"43\": {\"H\": 1}, \"44\": {\"C\": 1}, \"45\": {\"C\": 1}, \"46\": {\"C\": 1}, \"47\": {\"C\": 1}, \"48\": {\"C\": 1}, \"49\": {\"C\": 1}, \"50\": {\"C\": 1}, \"51\": {\"C\": 1}, \"52\": {\"C\": 1}, \"53\": {\"C\": 1}, \"54\": {\"C\": 1}, \"55\": {\"C\": 1}, \"56\": {\"C\": 1}, \"57\": {\"C\": 1}, \"58\": {\"C\": 1}, \"59\": {\"C\": 1}, \"60\": {\"C\": 1}, \"61\": {\"C\": 1}, \"62\": {\"C\": 1}, \"63\": {\"C\": 1}, \"64\": {\"C\": 1}, \"65\": {\"C\": 1}, \"66\": {\"C\": 1}, \"67\": {\"C\": 1}, \"68\": {\"C\": 1}, \"69\": {\"C\": 1}, \"70\": {\"C\": 1}, \"71\": {\"C\": 1}, \"72\": {\"C\": 1}, \"73\": {\"C\": 1}, \"74\": {\"C\": 1}, \"75\": {\"C\": 1}, \"76\": {\"C\": 1}, \"77\": {\"C\": 1}, \"78\": {\"C\": 1}, \"79\": {\"C\": 1}, \"80\": {\"C\": 1}, \"81\": {\"C\": 1}, \"82\": {\"C\": 1}, \"83\": {\"C\": 1}, \"84\": {\"C\": 1}, \"85\": {\"C\": 1}, \"86\": {\"C\": 1}, \"87\": {\"C\": 1}, \"88\": {\"C\": 1}, \"89\": {\"C\": 1}, \"90\": {\"C\": 1}, \"91\": {\"C\": 1}, \"92\": {\"S\": 1}, \"93\": {\"S\": 1}, \"94\": {\"N\": 1}, \"95\": {\"N\": 1}, \"96\": {\"N\": 1}, \"97\": {\"N\": 1}, \"98\": {\"N\": 1}, \"99\": {\"N\": 1}, \"100\": {\"O\": 1}, \"101\": {\"O\": 1}, \"102\": {\"O\": 1}, \"103\": {\"O\": 1}, \"104\": {\"O\": 1}, \"105\": {\"O\": 1}, \"106\": {\"O\": 1}, \"107\": {\"O\": 1}, \"108\": {\"O\": 1}, \"109\": {\"O\": 1}, \"110\": {\"O\": 1}, \"111\": {\"O\": 1}}" energy=-741.4661865234375 free_energy=-741.4661865234375 stress="-0.004109863191843033 -4.6402750740526244e-05 -4.399787485453999e-06 -4.6402750740526244e-05 -0.006618473678827286 0.0003003199235536158 -4.399787485453999e-06 0.0003003199235536158 -0.0042809671722352505" pbc="T T T"
Zn       7.93634650      10.18434639       4.04968682        0      -0.02984828       0.05067740      -0.03532868
Zn       7.37898261       1.86245966       7.66944139        1       0.03164886      -0.05724111       0.03899531
H       11.33679476       7.50051370       5.70982212        2      -0.03477079      -0.01038242      -0.02150737
H        3.97635035       4.54724448       6.01035029        3       0.04117036      -0.06167429       0.01083843
H       11.92769969       9.27122575       4.07667288        4       0.04297676       0.03835962      -0.00158972
H        3.38725712       2.77595691       7.64218416        5      -0.04138752      -0.05035292       0.04374357
H       12.35680455      10.37069712       5.38395874        6      -0.04436515      -0.02249820      -0.02821418
H        2.95848080       1.67569467       6.33552447        7       0.03907486      -0.02747475       0.02663689
H        4.38294445       8.51051355       6.20137036        8       0.08016308       0.00833262      -0.01148555
H       10.93310076       3.53683751       5.51686062        9      -0.08086182      -0.02397403       0.02691866
H        4.09051331       7.72270550       4.66331512       10       0.02408822      -0.05402527       0.01416100
H       11.22449597       4.32400425       7.05559852       11      -0.02468529       0.00658010      -0.03161805
H        9.73184904       6.03122439       6.68676362       12       0.03212012       0.01624050      -0.05767579
H        5.58386746       6.01632903       5.03174651       13      -0.01619278      -0.04459053       0.01819654
H        7.36812406       5.40250180       7.03443369       14      -0.02595608       0.00378741       0.05406964
H        7.94770599       6.64593579       4.68550054       15       0.00008020      -0.02271633      -0.08498686
H        7.45838824       7.17582907      10.95848290       16      -0.01056136      -0.02288436      -0.01170507
H        7.85766877       4.87148517       0.76119989       17       0.01599645       0.01273028      -0.01007569
H        9.83723305       7.81982165      10.60544244       18      -0.00420281       0.02998137      -0.00844415
H        5.47753693       4.22756125       1.11376644       19      -0.00045482      -0.03537408       0.01047968
H        5.80327145       4.71315328       9.34480475       20       0.02608578      -0.05394834       0.00758465
H        9.51085426       7.33516735       2.37286207       21      -0.02055635      -0.02210681       0.00090128
H        5.16738096       6.03936711       8.38874523       22       0.01330826       0.04152062      -0.05977117
H       10.14873612       6.00711406       3.32939923       23      -0.01953168      -0.03791113       0.05224837
H        5.39602841       6.26249376      10.13707515       24      -0.03777886      -0.02640438       0.01940393
H        9.91822029       5.78389208       1.58141979       25       0.04777528       0.01509867      -0.04054224
H        6.18593449       8.14413162       2.35756975       26      -0.05286619       0.01153987       0.04329569
H        9.12996756       3.90460680       9.36033875       27      -0.00222969      -0.05603527       0.01195066
H        6.21408256       7.28440923       0.00726564       28       0.00200830      -0.01490103      -0.02182312
H        9.10214242       4.76262768      11.71063671       29      -0.02205739      -0.00485828       0.01153474
H       11.88816454      10.55972846      10.08126052       30      -0.00369532      -0.03398182      -0.00599837
H        3.42668368       1.48761664       1.63854320       31       0.00555797       0.01723335      -0.04570727
H       13.61222746       4.21838966      10.48035780       32      -0.00344442      -0.02929688      -0.03668240
H        1.70251893       7.82931344       1.23731821       33      -0.00982352       0.02251238       0.05523820
H       12.02503605       2.50239356       9.61910278       34       0.00816612       0.03307766      -0.00778136
H        3.29119880       9.54491890       2.09942626       35      -0.01590892      -0.05377107      -0.04065354
H        0.99694964       3.09527645       0.80729631       36       0.01359299      -0.06165782      -0.02622976
H       14.31949553       8.95350090      10.91174252       37      -0.05483133       0.02830650       0.04326849
H       10.51729355       3.54985202       3.24542065       38       0.01325710      -0.01834292      -0.00317533
H        4.79766362       8.49724423       8.47483846       39      -0.03847156      -0.00733935      -0.01882633
H        8.61025463       2.60638969       4.59735381       40       0.03220714      -0.02477676       0.02346492
H        6.70584879       9.43906731       7.12158543       41      -0.03262869       0.02619316      -0.02359972
H       11.68923776       9.58541060       7.82458528       42       0.09880583       0.09990291      -0.00626825
H        3.62621926       2.46057542       3.89451020       43      -0.10370218      -0.06555025       0.02636282
C        9.94073312       9.14798602       5.82121003       44       0.06505519      -0.07477161       0.06876853
C        5.37587347       2.89721726       5.89965549       45      -0.22381210       0.08319560      -0.22926758
C       11.34592222       8.55843321       6.01973074       46       0.05130813       0.13441077       0.23260576
C        3.96919484       3.48666278       5.70106713       47      -0.06540680      -0.06430215      -0.23946548
C       12.32751581       9.30764559       5.10002132       48      -0.06656037      -0.00033776       0.04533380
C        2.98620934       2.73675370       6.62081521       49       0.10827336       0.07391735      -0.10494819
C        4.09367054       8.70624000       5.15835344       50       0.05188755       0.10120168       0.04758601
C       11.22103815       3.33870258       6.56029293       51      -0.04890021      -0.04644403      -0.02800258
C        5.18179606       9.54449546       4.51813551       52      -0.12940544      -0.05404368       0.03021730
C       10.13397386       2.50144997       7.20123930       53      -0.01106191       0.06779429      -0.04165381
C        9.92068104       6.98483417       8.62577291       54      -0.20916730      -0.06734814      -0.06041197
C        5.39620804       5.06268429       3.09383130       55       0.13302499      -0.01270885       0.00064672
C        9.22712170       6.30993692       7.60901327       56      -0.02206083       0.06909178       0.02454007
C        6.08914892       5.73305302       4.10928366       57       0.03672726       0.05605067       0.11523137
C        7.89515860       5.96893102       7.80466972       58      -0.06374727      -0.02760282       0.06223012
C        7.41987834       6.07915383       3.91426944       59       0.09948447       0.01136763      -0.05063464
C        7.23429059       6.26901685       9.00880103       60      -0.03684049       0.06512447      -0.03484878
C        8.08032299       5.77780310       2.71045567       61       0.06464711      -0.06624457       0.01951760
C        7.94682141       6.94882556      10.00661040       62      -0.07429773      -0.05466836       0.00360569
C        7.36848184       5.09699753       1.71215286       63       0.05723105       0.06606662       0.04176700
C        9.27658445       7.31249277       9.82460578       64      -0.01934452       0.04825198       0.03649472
C        6.03873107       4.73304878       1.89523896       65       0.05578682      -0.03291483      -0.07557979
C        5.82494027       5.80599459       9.23730659       66      -0.02018219       0.01630746      -0.00041043
C        9.49038693       6.23980378       2.48092776       67      -0.00270721       0.07275965       0.02290504
C        6.88639086       8.53683640       1.62452693       68       0.07655306      -0.04640920      -0.21203350
C        8.42922705       3.50775682      10.09490907       69      -0.01300398       0.09119284       0.09678587
C        6.91135199       8.06574360       0.30441442       70       0.00038999      -0.03037816       0.15415536
C        8.40414179       3.98089628      11.41320586       71      -0.02105148       0.02053456      -0.08555105
C       11.86361169      10.87958482      11.12111027       72       0.01988783      -0.03232976       0.09075550
C        3.45134330       1.16660500       0.59725939       73      -0.00043028       0.07195322      -0.04123947
C       12.73767629      11.90280023      11.54764812       74       0.05876346      -0.03416713       0.03670561
C        2.57659899       0.14363411       0.17161695       75      -0.01565052       0.06084125      -0.04987734
C        6.99150182       0.24530037       1.18784920       76       0.03950213      -0.07489419      -0.06638835
C        8.32394383      11.80159689      10.53268936       77      -0.01475947       0.06184737      -0.03315770
C        7.90688293       1.23154897       1.69093387       78      -0.06075644      -0.03905948      -0.00069851
C        7.40986840      10.81660937      10.02823014       79      -0.06099577      -0.06794380       0.04361428
C        8.86906895       1.80643920       0.82291779       80       0.05292666       0.06253140      -0.00009969
C        6.44564882      10.23989828      10.89541812       81      -0.02265021      -0.03883198      -0.01843036
C       12.90557954       3.73014469      11.15146311       82      -0.05898128       0.00393805      -0.00579186
C        2.40888060       8.31767997       0.56704086       83       0.01941074      -0.07026365      -0.06042013
C       12.03866390       2.78713868      10.67332207       84      -0.06685853       0.03933431       0.06861557
C        3.27613039       9.25855782       1.04382052       85       0.09131455       0.03194538       0.06032985
C        9.83077174       2.65860980       1.41194704       86       0.01447061       0.04514435       0.02627385
C        5.48446732       9.38585617      10.30530996       87       0.05156208       0.04379470       0.06933357
C        9.76696471       2.91703472       2.77177212       88      -0.05104741       0.07234338       0.04957154
C        5.54811590       9.12840023       8.94770532       89       0.07443331      -0.07041607      -0.12737596
C        8.72295505       2.37496014       3.53605015       90       0.06677404       0.06349844      -0.01026216
C        6.59231849       9.67064910       8.18273305       91      -0.08459736      -0.07917786       0.04566932
S       11.64173144       7.39003103       8.42569850       92      -0.67442638       0.32136083       0.05205921
S        3.67511416       4.65674794       3.29235541       93       0.64152277      -0.28730065       0.06715438
N        7.82606782       1.54363300       3.00536252       94       0.09109306       0.10459548      -0.16117278
N        7.48847823      10.50048829       8.71502670       95      -0.02479729      -0.04270393       0.11584719
N        7.72333851       9.48166362       2.05625280       96      -0.04706582       0.02463225      -0.03519633
N        7.59267204       2.56263760       9.66206754       97       0.04825030       0.00678237       0.09449404
N       11.78807553       8.64541474       7.40219111       98      -0.38794738       0.47398901      -1.07647169
N        3.52683661       3.40118012       4.31844795       99       0.40056723      -0.49124795       1.03690267
O        9.40755154       8.92095234       4.68079034      100       0.12228779      -0.04289062       0.23883003
O        5.90536309       3.12476046       7.03731671      101      -0.00805977       0.05164492      -0.07013439
O        9.41862318       9.83913056       6.73884403      102      -0.07898657       0.11671861      -0.14385936
O        5.89511489       2.20673270       4.97988983      103       0.11170119      -0.13155274       0.14514157
O        4.89151746      10.44839606       3.69549924      104       0.06552388      -0.06522612      -0.08345020
O       10.42142751       1.59854119       8.02620654      105      -0.06107405       0.08728980       0.05344737
O        6.38299762       9.22941581       4.87774332      106       0.04898778      -0.06359810      -0.08144163
O        8.93040925       2.81804016       6.84063975      107       0.06514028       0.03123539       0.11043005
O       12.14110251       7.85888504       9.71113917      108       0.54950476       0.21552317       1.40055239
O        3.17387219       4.18797009       2.00946461      109      -0.55946916      -0.24307834      -1.46317589
O       12.26059080       6.24043111       7.78265236      110       0.69957578      -1.37266159      -0.55696678
O        3.05058566       5.80545165       3.93468552      111      -0.66473609       1.33930326       0.54069632
112
Lattice="9.63197794 0.0 0.0 1.6240740294857616 9.777360529052332 0.0 4.060944788742931 2.2684844850588077 11.720648749607989" Properties=species:S:1:pos:R:3:spacegroup_kinds:I:1:forces:R:3 spacegroup="P 1" unit_cell=conventional occupancy="_JSON {\"0\": {\"Zn\": 1}, \"1\": {\"Zn\": 1}, \"2\": {\"H\": 1}, \"3\": {\"H\": 1}, \"4\": {\"H\": 1}, \"5\": {\"H\": 1}, \"6\": {\"H\": 1}, \"7\": {\"H\": 1}, \"8\": {\"H\": 1}, \"9\": {\"H\": 1}, \"10\": {\"H\": 1}, \"11\": {\"H\": 1}, \"12\": {\"H\": 1}, \"13\": {\"H\": 1}, \"14\": {\"H\": 1}, \"15\": {\"H\": 1}, \"16\": {\"H\": 1}, \"17\": {\"H\": 1}, \"18\": {\"H\": 1}, \"19\": {\"H\": 1}, \"20\": {\"H\": 1}, \"21\": {\"H\": 1}, \"22\": {\"H\": 1}, \"23\": {\"H\": 1}, \"24\": {\"H\": 1}, \"25\": {\"H\": 1}, \"26\": {\"H\": 1}, \"27\": {\"H\": 1}, \"28\": {\"H\": 1}, \"29\": {\"H\": 1}, \"30\": {\"H\": 1}, \"31\": {\"H\": 1}, \"32\": {\"H\": 1}, \"33\": {\"H\": 1}, \"34\": {\"H\": 1}, \"35\": {\"H\": 1}, \"36\": {\"H\": 1}, \"37\": {\"H\": 1}, \"38\": {\"H\": 1}, \"39\": {\"H\": 1}, \"40\": {\"H\": 1}, \"41\": {\"H\": 1}, \"42\": {\"H\": 1}, \"43\": {\"H\": 1}, \"44\": {\"C\": 1}, \"45\": {\"C\": 1}, \"46\": {\"C\": 1}, \"47\": {\"C\": 1}, \"48\": {\"C\": 1}, \"49\": {\"C\": 1}, \"50\": {\"C\": 1}, \"51\": {\"C\": 1}, \"52\": {\"C\": 1}, \"53\": {\"C\": 1}, \"54\": {\"C\": 1}, \"55\": {\"C\": 1}, \"56\": {\"C\": 1}, \"57\": {\"C\": 1}, \"58\": {\"C\": 1}, \"59\": {\"C\": 1}, \"60\": {\"C\": 1}, \"61\": {\"C\": 1}, \"62\": {\"C\": 1}, \"63\": {\"C\": 1}, \"64\": {\"C\": 1}, \"65\": {\"C\": 1}, \"66\": {\"C\": 1}, \"67\": {\"C\": 1}, \"68\": {\"C\": 1}, \"69\": {\"C\": 1}, \"70\": {\"C\": 1}, \"71\": {\"C\": 1}, \"72\": {\"C\": 1}, \"73\": {\"C\": 1}, \"74\": {\"C\": 1}, \"75\": {\"C\": 1}, \"76\": {\"C\": 1}, \"77\": {\"C\": 1}, \"78\": {\"C\": 1}, \"79\": {\"C\": 1}, \"80\": {\"C\": 1}, \"81\": {\"C\": 1}, \"82\": {\"C\": 1}, \"83\": {\"C\": 1}, \"84\": {\"C\": 1}, \"85\": {\"C\": 1}, \"86\": {\"C\": 1}, \"87\": {\"C\": 1}, \"88\": {\"C\": 1}, \"89\": {\"C\": 1}, \"90\": {\"C\": 1}, \"91\": {\"C\": 1}, \"92\": {\"S\": 1}, \"93\": {\"S\": 1}, \"94\": {\"N\": 1}, \"95\": {\"N\": 1}, \"96\": {\"N\": 1}, \"97\": {\"N\": 1}, \"98\": {\"N\": 1}, \"99\": {\"N\": 1}, \"100\": {\"O\": 1}, \"101\": {\"O\": 1}, \"102\": {\"O\": 1}, \"103\": {\"O\": 1}, \"104\": {\"O\": 1}, \"105\": {\"O\": 1}, \"106\": {\"O\": 1}, \"107\": {\"O\": 1}, \"108\": {\"O\": 1}, \"109\": {\"O\": 1}, \"110\": {\"O\": 1}, \"111\": {\"O\": 1}}" energy=-741.5121459960938 free_energy=-741.5121459960938 stress="-0.004056994803249836 -0.0003368157777003944 3.507604333208292e-06 -0.0003368157777003944 -0.005876151379197836 0.0007595362840220332 3.507604333208292e-06 0.0007595362840220332 -0.004008594434708357" pbc="T T T"
Zn       7.93559667      10.18536945       4.04972225        0      -0.01263778       0.03596566      -0.03943299
Zn       7.37872470       1.86206151       7.66935541        1       0.01708205      -0.04575949       0.03004933
H       11.33557381       7.50169238       5.70844285        2      -0.02787700       0.04023893       0.00875583
H        3.97553710       4.54757803       6.01010357        3       0.03995277      -0.13497606      -0.01949780
H       11.92872422       9.27261493       4.07542685        4       0.03008598       0.02979986       0.02468430
H        3.38539183       2.77588941       7.64153707        5      -0.03764521      -0.04052948       0.01223262
H       12.35534861      10.37218500       5.38305969        6      -0.03926678      -0.03619824      -0.02990615
H        2.95776927       1.67591174       6.33458271        7       0.03882456      -0.02327619       0.02545190
H        4.38380922       8.51208359       6.20015189        8       0.07465537       0.00994817      -0.03214653
H       10.93053362       3.53538551       5.51489955        9      -0.07859226      -0.01499347       0.01798836
H        4.08979193       7.72231255       4.66194210       10       0.02483088      -0.00615309       0.03488610
H       11.22308059       4.32550921       7.05352676       11      -0.02691369      -0.02205223      -0.04706837
H        9.73119289       6.03170824       6.68496065       12       0.01895801       0.01733383      -0.04586872
H        5.58367987       6.01572150       5.03181153       13      -0.02356225      -0.02839199       0.05063017
H        7.36638036       5.40377282       7.03517733       14      -0.03797212      -0.01220430       0.03389422
H        7.94720364       6.64679254       4.68300525       15       0.01245111      -0.00883904      -0.07311039
H        7.45697661       7.17678815      10.95696251       16      -0.01279541      -0.02707551      -0.01210505
H        7.85651839       4.87253645       0.75999151       17       0.02918672       0.01274828      -0.01419975
H        9.83612488       7.82071298      10.60354628       18      -0.01287402       0.02793891      -0.01500394
H        5.47705132       4.22848806       1.11260767       19       0.00045864      -0.04290742      -0.00701976
H        5.80162186       4.71325393       9.34282492       20       0.03443465      -0.03181033       0.00819399
H        9.50892596       7.33566262       2.37127310       21      -0.01869317       0.01515041       0.00468129
H        5.16692239       6.03942256       8.38598545       22       0.03294024       0.03532976      -0.01894640
H       10.14675066       6.00668768       3.32871573       23      -0.02284078      -0.02006641       0.03363882
H        5.39459772       6.26208460      10.13496283       24      -0.05509662      -0.00235162       0.05838347
H        9.91780045       5.78496939       1.57953405       25       0.03318187       0.03377550      -0.00818066
H        6.18402279       8.14371412       2.35697884       26      -0.00307128       0.03739350      -0.00967909
H        9.12970963       3.90488682       9.35933747       27      -0.00903590      -0.05871260       0.02292118
H        6.21332805       7.28457258       0.00582787       28       0.03827868       0.02653166       0.00328209
H        9.10138526       4.76323676      11.70940390       29      -0.04143707      -0.02629700      -0.00023117
H       11.88653000      10.55974849      10.08034864       30      -0.00844346      -0.02802239       0.02528355
H        3.42512055       1.48928053       1.63732821       31       0.00994717       0.00953390      -0.07090297
H       13.61207276       4.21877837      10.47817883       32      -0.04826289      -0.05554429      -0.00661118
H        1.70190503       7.83069801       1.23725251       33      -0.00634605       0.01887859       0.04394257
H       12.02387933       2.50347771       9.61752217       34       0.00407317       0.04396003       0.04413377
H        3.29039006       9.54463037       2.09753220       35      -0.01046993      -0.03734893       0.00156358
H        0.99731159       3.09549912       0.80516515       36       0.00239253      -0.06372751      -0.01633237
H       14.31854325       8.95446971      10.91169373       37      -0.05491875       0.02257846       0.03699101
H       10.51692687       3.55004949       3.24485331       38       0.02113397      -0.01108279      -0.00170742
H        4.79614957       8.49701686       8.47438424       39      -0.00457631       0.01143295      -0.00992755
H        8.60945088       2.60721291       4.59671008       40       0.02594022      -0.02443273       0.02787804
H        6.70481160       9.44021190       7.12059982       41      -0.03176469       0.02489761      -0.04808872
H       11.69041365       9.58757693       7.82441986       42       0.09748862       0.10237533      -0.01832221
H        3.62508700       2.45959823       3.89521167       43      -0.10136752      -0.09753197       0.01875900
C        9.94214309       9.14731442       5.82190919       44      -0.03307706      -0.01912957       0.04161768
C        5.37296624       2.89788015       5.89711183       45      -0.08876407       0.03938591      -0.11624175
C       11.34571900       8.56072638       6.02182881       46       0.03598562       0.04083410       0.08622026
C        3.96772416       3.48477521       5.69835904       47      -0.01183133       0.06568728      -0.10923135
C       12.32624886       9.30822847       5.10032490       48      -0.03663970       0.04194666       0.01088624
C        2.98695143       2.73765375       6.61824941       49       0.01786169       0.03448373      -0.03966156
C        4.09346501       8.70801008       5.15661298       50       0.02249067       0.03085124       0.08739057
C       11.21935464       3.33912104       6.55813277       51       0.00392237      -0.04481876      -0.02252360
C        5.18022602       9.54499336       4.51672084       52      -0.02678818      -0.07313654       0.02866168
C       10.13297609       2.50169960       7.19902859       53      -0.04308549       0.11347169      -0.02393761
C        9.91794316       6.98281224       8.62440501       54      -0.15323205      -0.00497091      -0.02556260
C        5.39731243       5.06357714       3.09349051       55       0.16279754      -0.02158402      -0.03294824
C        9.22539126       6.30982161       7.60732932       56      -0.00782524       0.05045128       0.00953227
C        6.08996649       5.73489809       4.11056190       57      -0.01798472      -0.01173869       0.00492336
C        7.89399010       5.96917600       7.80463459       58      -0.07786541      -0.02704722       0.03022124
C        7.41902680       6.08039653       3.91249263       59       0.17151667       0.01706700      -0.04771213
C        7.23249738       6.27051674       9.00712607       60      -0.02548093       0.04573287      -0.00459399
C        8.08174485       5.77746827       2.70931823       61      -0.04025523      -0.05489229       0.04805727
C        7.94532937       6.94842089      10.00533244       62      -0.07812799      -0.01891442       0.02868065
C        7.36872617       5.09745764       1.71161700       63       0.10249405       0.06172964      -0.00348380
C        9.27422138       7.31358163       9.82310128       64       0.00498798       0.02288228       0.02700405
C        6.04015399       4.73343647       1.89229423       65      -0.03126977      -0.00120577       0.06273256
C        5.82433826       5.80697820       9.23691151       66      -0.05360429      -0.02507259      -0.09364575
C        9.48875198       6.24168378       2.47969926       67       0.07626802       0.00404822       0.00492672
C        6.88610967       8.53626102       1.62202898       68       0.06002007       0.02434057       0.00210476
C        8.42863973       3.50890145      10.09462289       69      -0.01356946       0.05548513       0.00300847
C        6.91165334       8.06670280       0.30543379       70      -0.07766467      -0.14509459       0.03404272
C        8.40268912       3.98118345      11.41070344       71       0.02410002       0.09250914       0.00609831
C       11.86223692      10.87932525      11.12128565       72       0.08322673       0.00296909       0.02432334
C        3.45061858       1.16777969       0.59545196       73      -0.02696391       0.06272055      -0.02590117
C       12.73723499      11.90262806      11.54668544       74       0.02713056      -0.05828772       0.03854668
C        2.57543511       0.14508207       0.16916589       75      -0.01718382       0.06728266       0.02211367
C        6.99116734       0.24523836       1.18625938       76       0.00195384      -0.08645368      -0.02607093
C        8.32263471      11.80242850      10.53154137       77       0.00689463       0.05504221      -0.06533493
C        7.90459448       1.23115802       1.68949847       78       0.05902834       0.03985403      -0.02701032
C        7.40992621      10.81585289      10.02761154       79      -0.09940848      -0.07390624       0.04403917
C        8.86931396       1.80636427       0.82174221       80       0.00521022       0.05542624       0.00488640
C        6.44385689      10.23961280      10.89346094       81       0.01847146      -0.01059396       0.04415211
C       12.90318832       3.73054267      11.14992045       82       0.03831723       0.07307200       0.00283365
C        2.40782741       8.31724217       0.56482212       83       0.08255549       0.01496795       0.01372124
C       12.03706856       2.78796224      10.67359690       84      -0.08141620      -0.00675705      -0.05062805
C        3.27640148       9.25984034       1.04306679       85       0.01318780      -0.06348337      -0.05177360
C        9.83026580       2.65978197       1.41005640       86       0.01174730       0.03192715       0.06829769
C        5.48414364       9.38572390      10.30545377       87       0.04338630       0.01354313      -0.05714004
C        9.76647618       2.91771144       2.77137914       88      -0.05243302       0.07231273       0.00127478
C        5.54992031       9.12787880       8.94523240       89      -0.07647783      -0.12178966      -0.00123732
C        8.72196272       2.37684009       3.53533134       90       0.07228188       0.03656565      -0.05799231
C        6.59013596       9.67071259       8.18112377       91      -0.02798872      -0.06866449       0.04274344
S       11.63874023       7.39294706       8.42471809       92      -0.50816619       0.13629699       0.03100833
S        3.67771725       4.65455621       3.29322205       93       0.45269457      -0.17273843       0.00109356
N        7.82603082       1.54496664       3.00263956       94       0.05358395       0.09452049      -0.09518183
N        7.48604262      10.49897275       8.71588770       95       0.04897104       0.00985031       0.05946726
N        7.72305368       9.48310382       2.05555126       96      -0.08935693      -0.04112871      -0.07686639
N        7.59216628       2.56344482       9.66147143       97       0.03495292      -0.00448479       0.08583701
N       11.78515488       8.64824366       7.39919181       98      -0.33516750       0.43587601      -0.90822333
N        3.52871611       3.39852574       4.32144749       99       0.33622110      -0.41260052       0.84459329
O        9.40725025       8.91868399       4.68249156      100       0.13376576      -0.04642197       0.21995394
O        5.90394682       3.12683475       7.03589341      101      -0.04898722       0.03738327      -0.13949423