76
Lattice="8.80815902 0.0 0.0 1.4561993062961561e-05 11.23086207999056 0.0 0.00011086943796849835 4.0223894773079995e-05 11.208382659379483" Properties=species:S:1:pos:R:3:spacegroup_kinds:I:1:forces:R:3 spacegroup="P 1" unit_cell=conventional occupancy="_JSON {\"0\": {\"Sn\": 1}, \"1\": {\"Sn\": 1}, \"2\": {\"Sn\": 1}, \"3\": {\"Sn\": 1}, \"4\": {\"H\": 1}, \"5\": {\"H\": 1}, \"6\": {\"H\": 1}, \"7\": {\"H\": 1}, \"8\": {\"H\": 1}, \"9\": {\"H\": 1}, \"10\": {\"H\": 1}, \"11\": {\"H\": 1}, \"12\": {\"H\": 1}, \"13\": {\"H\": 1}, \"14\": {\"H\": 1}, \"15\": {\"H\": 1}, \"16\": {\"H\": 1}, \"17\": {\"H\": 1}, \"18\": {\"H\": 1}, \"19\": {\"H\": 1}, \"20\": {\"H\": 1}, \"21\": {\"H\": 1}, \"22\": {\"H\": 1}, \"23\": {\"H\": 1}, \"24\": {\"H\": 1}, \"25\": {\"H\": 1}, \"26\": {\"H\": 1}, \"27\": {\"H\": 1}, \"28\": {\"H\": 1}, \"29\": {\"H\": 1}, \"30\": {\"H\": 1}, \"31\": {\"H\": 1}, \"32\": {\"H\": 1}, \"33\": {\"H\": 1}, \"34\": {\"H\": 1}, \"35\": {\"H\": 1}, \"36\": {\"C\": 1}, \"37\": {\"C\": 1}, \"38\": {\"C\": 1}, \"39\": {\"C\": 1}, \"40\": {\"C\": 1}, \"41\": {\"C\": 1}, \"42\": {\"C\": 1}, \"43\": {\"C\": 1}, \"44\": {\"C\": 1}, \"45\": {\"C\": 1}, \"46\": {\"C\": 1}, \"47\": {\"C\": 1}, \"48\": {\"C\": 1}, \"49\": {\"C\": 1}, \"50\": {\"C\": 1}, \"51\": {\"C\": 1}, \"52\": {\"Br\": 1}, \"53\": {\"Br\": 1}, \"54\": {\"Br\": 1}, \"55\": {\"Br\": 1}, \"56\": {\"Br\": 1}, \"57\": {\"Br\": 1}, \"58\": {\"Br\": 1}, \"59\": {\"Br\": 1}, \"60\": {\"Br\": 1}, \"61\": {\"Br\": 1}, \"62\": {\"Br\": 1}, \"63\": {\"Br\": 1}, \"64\": {\"Br\": 1}, \"65\": {\"Br\": 1}, \"66\": {\"Br\": 1}, \"67\": {\"Br\": 1}, \"68\": {\"O\": 1}, \"69\": {\"O\": 1}, \"70\": {\"O\": 1}, \"71\": {\"O\": 1}, \"72\": {\"O\": 1}, \"73\": {\"O\": 1}, \"74\": {\"O\": 1}, \"75\": {\"O\": 1}}" energy=-373.2070007324219 free_energy=-373.2070007324219 stress="-0.014227354899048805 -5.6404237511742394e-06 3.464492692728527e-05 -5.6404237511742394e-06 -0.006543572060763836 -1.9021415482711745e-06 3.464492692728527e-05 -1.9021415482711745e-06 -0.003957073204219341" pbc="T T T"
Sn       8.81039162       8.42267636       8.78562679        0      -0.02745483       0.00230171       0.27324638
Sn       4.40446982       2.80554154       8.02684344        1      -0.00433394      -0.00081127      -0.28719887
Sn       0.00039221       2.80670245       2.42228753        2      -0.00206280       0.00165117      -0.27382734
Sn       4.40532228       8.42037888       3.18218792        3      -0.01605168       0.01957089       0.27381718
H        7.07984320       5.88099304       9.54470874        4      -0.10464236      -0.04920958      -0.05430420
H        6.13208522       0.26631280       7.26905561        5       0.04968190      -0.06251407      -0.03690593
H        1.72677763      10.96647366       9.54370762        6       0.09353509       0.04458742      -0.01464084
H        2.67685827       5.35047079       7.26768574        7      -0.11494148       0.03893522       0.05888055
H        1.72745953       5.35150215       1.66383036        8       0.07694203       0.04758423       0.00774476
H        2.67536197      10.96595122       3.93889448        9      -0.05806556       0.04905410       0.01922946
H        7.07914544       0.26548322       1.66398818       10      -0.06011484      -0.05553295      -0.03763741
H        6.13087031       5.87956678       3.94022056       11       0.07813344      -0.03860031      -0.03093142
H        6.88039097       5.98122408       0.11192247       12      -0.04332935      -0.04446518      -0.17328532
H        6.33165499       0.36529755       5.49217532       13       0.00628588      -0.05114055       0.19453385
H        1.92684235      10.86680865       0.11080990       14       0.07810226       0.02181303      -0.11741015
H        2.47735356       5.24980496       5.49096629       15      -0.05725046       0.03601021       0.16617696
H        1.92651733       5.25160314      11.09562075       16       0.03022408       0.04373769       0.18042493
H        2.47619154      10.86643227       5.71605537       17      -0.00353687       0.04838147      -0.20480669
H        6.88157011       0.36530886      11.09601480       18      -0.08261651      -0.03168754       0.11332330
H        6.33037065       5.98170100       5.71551618       19       0.01623460      -0.04633052      -0.18539584
H        1.32027680       7.56525534       0.52471258       20       0.04222728       0.05897289       0.06559287
H        3.08199652       1.94957238       5.07855221       21      -0.05802939       0.06674460      -0.06498417
H        7.48499213       9.28247988       0.52570512       22      -0.03752526      -0.07427581       0.06402753
H        5.72593394       3.66613393       5.07824278       23       0.01669553      -0.03791100      -0.07373780
H        7.48619009       3.66541074      10.68263787       24      -0.06122484      -0.08034850      -0.05899855
H        5.72598026       9.28307713       6.12866000       25       0.07246646      -0.10014188       0.06687853
H        1.32199550       1.94996659      10.68404129       26       0.01680440       0.04466951      -0.07746505
H        3.08137161       7.56604163       6.12874788       27      -0.03917711       0.05566368       0.07624220
H        8.67962123       6.98024516       1.41200133       28       0.12217462       0.06767559       0.02822591
H        4.53218541       1.36499252       4.18882295       29      -0.18356332       0.05396089       0.04418369
H        0.12765197       9.86666436       1.41353487       30      -0.14588824      -0.06115072      -0.00972103
H        4.27430626       4.25125528       4.19011481       31       0.15282047      -0.06244597       0.01301658
H        0.12768861       4.25183876       9.79386394       32      -0.17815676      -0.06076980       0.03295758
H        4.27529854       9.86737769       7.01899399       33       0.17805333      -0.06760644      -0.03760592
H        8.67872306       1.36440065       9.79450226       34       0.15323503       0.06184577       0.00123649
H        4.53209346       6.97914928       7.01736432       35      -0.16459896       0.06323627      -0.01589215
C        7.59571321       5.80403746      10.50294988       36       0.02162024       0.24408653      -0.07470353
C        5.61295306       0.18875761       6.30853391       37       0.13121518       0.24709079       0.16544910
C        1.21218150      11.04208498      10.50421387       38      -0.09502435      -0.22060281      -0.21110958
C        3.19093228       5.42696602       6.30889704       39       0.09579894      -0.26165941       0.09064153
C        1.20975225       5.42690387       0.70439432       40       0.04394183      -0.21737263       0.12457682
C        3.19451958      11.04209295       4.89876708       41      -0.12623453      -0.25807557      -0.13011363
C        7.59581599       0.18826084       0.70242045       42       0.04652843       0.25004491       0.26612905
C        5.61317444       5.80415435       4.89879558       43       0.01427034       0.26028463      -0.09782912
C        0.55417883       6.78508238       0.57180085       44       0.02238116       0.23680606      -0.22614163
C        3.84662814       1.16891620       5.03062766       45       0.11991455       0.28146055       0.20585756
C        8.25252061      10.06092211       0.57182333       46      -0.01643989      -0.22804272      -0.22033724
C        4.95818085       4.44627708       5.03161713       47       0.03613276      -0.27797616       0.18409982
C        8.25073816       4.44562900      10.63600901       48       0.09384914      -0.21886414       0.18490386
C        4.96022338      10.06106883       6.17661111       49      -0.10163923      -0.20392144      -0.18767783
C        0.55471264       1.16976831      10.63530378       50       0.04529399       0.24987203       0.22264272
C        3.84708075       6.78530533       6.17613201       51      -0.00771631       0.24170774      -0.16540085
Br       8.65165997       6.46927973       7.15014751       52       0.01053809      -0.34600174      -0.33263814
Br       4.56515654       0.85353521       9.66222553       53      -0.01557853      -0.34828556       0.33543131
Br       0.15946931      10.37662749       7.14999809       54      -0.01612142       0.34192532      -0.32997036
Br       4.24777967       4.75703730       9.66118661       55       0.01110411       0.35610035       0.34108388
Br       0.15544101       4.76036718       4.05822747       56      -0.01271056       0.34354079       0.33089271
Br       4.24350921      10.37544029       1.54615111       57       0.01518799       0.33716619      -0.32737234
Br       8.64694141       0.85345324       4.05834089       58       0.01636947      -0.34266859       0.32919925
Br       4.55954575       6.46912050       1.54678188       59      -0.01211951      -0.35348547      -0.34009942
Br       6.29411078       8.67351685       9.22242023       60      -0.76648545       0.05219048       0.09680133
Br       6.91780872       3.05616468       7.58782226       61       0.78025460       0.05613158      -0.09883247
Br       2.51312042       8.16980958       9.22016516       62       0.79033482      -0.05287517       0.10635078
Br       1.89007887       2.55386888       7.59077605       63      -0.77103949      -0.05004235      -0.10146371
Br       2.51419708       2.55463038       1.98428585       64       0.77363282      -0.05037300      -0.09877859
Br       1.89030933       8.16899995       3.62040389       65      -0.77351868      -0.04917318       0.09611464
Br       6.29405936       3.05871873       1.98452403       66      -0.77367836       0.05401751      -0.09888048
Br       6.91844717       8.67312722       3.61663310       67       0.77700728       0.05290610       0.10374188
O        8.60591832       6.84401627      10.54645542       68      -0.18519562      -0.76003861       0.67365342
O        4.60596056       1.22854587       6.26575698       69       0.11175513      -0.73901105      -0.73706114
O        0.19930085      10.00237436      10.54463184       70       0.22205859       0.77601230       0.71578962
O        4.20475902       4.38693866       6.26578187       71      -0.25823039       0.79350936      -0.65468359
O        0.20215990       4.38698323       0.66149198       72       0.12214176       0.72961825      -0.71093822
O        4.20190836      10.00244583       4.94240587       73      -0.13635522       0.72614914       0.69916081
O        8.60741416       1.22843214       0.66148089       74      -0.21386412      -0.77964044      -0.69472396
O        4.60143315       6.84380444       4.94268898       75       0.23956949      -0.77396566       0.64124483
76
Lattice="8.80815902 0.0 0.0 1.4561993062961561e-05 11.23086207999056 0.0 0.00011086943796849835 4.0223894773079995e-05 11.208382659379483" Properties=species:S:1:pos:R:3:spacegroup_kinds:I:1:forces:R:3 spacegroup="P 1" unit_cell=conventional occupancy="_JSON {\"0\": {\"Sn\": 1}, \"1\": {\"Sn\": 1}, \"2\": {\"Sn\": 1}, \"3\": {\"Sn\": 1}, \"4\": {\"H\": 1}, \"5\": {\"H\": 1}, \"6\": {\"H\": 1}, \"7\": {\"H\": 1}, \"8\": {\"H\": 1}, \"9\": {\"H\": 1}, \"10\": {\"H\": 1}, \"11\": {\"H\": 1}, \"12\": {\"H\": 1}, \"13\": {\"H\": 1}, \"14\": {\"H\": 1}, \"15\": {\"H\": 1}, \"16\": {\"H\": 1}, \"17\": {\"H\": 1}, \"18\": {\"H\": 1}, \"19\": {\"H\": 1}, \"20\": {\"H\": 1}, \"21\": {\"H\": 1}, \"22\": {\"H\": 1}, \"23\": {\"H\": 1}, \"24\": {\"H\": 1}, \"25\": {\"H\": 1}, \"26\": {\"H\": 1}, \"27\": {\"H\": 1}, \"28\": {\"H\": 1}, \"29\": {\"H\": 1}, \"30\": {\"H\": 1}, \"31\": {\"H\": 1}, \"32\": {\"H\": 1}, \"33\": {\"H\": 1}, \"34\": {\"H\": 1}, \"35\": {\"H\": 1}, \"36\": {\"C\": 1}, \"37\": {\"C\": 1}, \"38\": {\"C\": 1}, \"39\": {\"C\": 1}, \"40\": {\"C\": 1}, \"41\": {\"C\": 1}, \"42\": {\"C\": 1}, \"43\": {\"C\": 1}, \"44\": {\"C\": 1}, \"45\": {\"C\": 1}, \"46\": {\"C\": 1}, \"47\": {\"C\": 1}, \"48\": {\"C\": 1}, \"49\": {\"C\": 1}, \"50\": {\"C\": 1}, \"51\": {\"C\": 1}, \"52\": {\"Br\": 1}, \"53\": {\"Br\": 1}, \"54\": {\"Br\": 1}, \"55\": {\"Br\": 1}, \"56\": {\"Br\": 1}, \"57\": {\"Br\": 1}, \"58\": {\"Br\": 1}, \"59\": {\"Br\": 1}, \"60\": {\"Br\": 1}, \"61\": {\"Br\": 1}, \"62\": {\"Br\": 1}, \"63\": {\"Br\": 1}, \"64\": {\"Br\": 1}, \"65\": {\"Br\": 1}, \"66\": {\"Br\": 1}, \"67\": {\"Br\": 1}, \"68\": {\"O\": 1}, \"69\": {\"O\": 1}, \"70\": {\"O\": 1}, \"71\": {\"O\": 1}, \"72\": {\"O\": 1}, \"73\": {\"O\": 1}, \"74\": {\"O\": 1}, \"75\": {\"O\": 1}}" energy=-373.2921447753906 free_energy=-373.2921447753906 stress="-0.014311859384179115 4.1661623981781304e-05 0.00017441724776290357 4.1661623981781304e-05 -0.006198254879564047 -4.742786768474616e-05 0.00017441724776290357 -4.742786768474616e-05 -0.004557846114039421" pbc="T T T"
Sn       8.81200119       8.42160031       8.78840497        0      -0.04711118       0.00698306       0.24036664
Sn       4.40719421       2.80572865       8.02455573        1      -0.03190624       0.01033853      -0.26497966
Sn      -0.00003894       2.80770829       2.41943714        2       0.00262313      -0.01903751      -0.25310668
Sn       4.40734076       8.41831722       3.18486318        3      -0.04051415       0.03879073       0.24125107
H        7.07795456       5.88023039       9.54367839        4      -0.08259705      -0.04043967      -0.04979103
H        6.13266439       0.26683588       7.26747674        5       0.06196405      -0.05605741       0.02323987
H        1.72693496      10.96780072       9.54365034        6       0.10329822       0.01736262      -0.07484095
H        2.67429749       5.35240248       7.26713919        7      -0.08884046       0.02249215       0.05439960
H        1.72857771       5.35346705       1.66367033        8       0.07370576       0.02935206       0.01510559
H        2.67443409      10.96832325       3.93920077        9      -0.07549123       0.02316173      -0.04096884
H        7.07744749       0.26413225       1.66164193       10      -0.08574710      -0.03065704       0.05977013
H        6.13102259       5.87901544       3.93873341       11       0.06091249      -0.02767020      -0.03261748
H        6.87776757       5.98257733       0.10909072       12      -0.04069206      -0.05259649      -0.16380942
H        6.33210641       0.36534249       5.49480872       13       0.03219107      -0.04621420       0.15942612
H        1.92826954      10.86860154       0.10936863       14       0.04567220       0.01754958      -0.15505868
H        2.47578990       5.25135717       5.49310931       15      -0.07338446       0.01980435       0.13379459
H        1.92632018       5.25309941      11.09700736       16       0.08726310       0.02244466       0.12465058
H        2.47613427      10.86935726       5.71331527       17      -0.05457851       0.02484909      -0.15434116
H        6.87947200       0.36435547      11.09620132       18      -0.05563700      -0.03031195       0.14030600
H        6.33193961       5.98079747       5.71256491       19       0.01020399      -0.03775579      -0.19008118
H        1.31967043       7.56609596       0.52564239       20       0.09162764       0.11123648       0.02759815
H        3.08036276       1.94987542       5.07613029       21      -0.03272085       0.06449649      -0.03450989
H        7.48407582       9.28209207       0.52731921       22      -0.03249128      -0.09043187       0.03893344
H        5.72626348       3.66556485       5.07742563       23       0.05099670      -0.07213215      -0.04656451
H        7.48528695       3.66527501      10.68090818       24      -0.05826411      -0.09417208      -0.03224839
H        5.72743521       9.28198396       6.13021787       25       0.04396424      -0.08864048       0.03807530
H        1.32204759       1.95075892      10.68200107       26       0.04300637       0.06963763      -0.05479278
H        3.08145928       7.56582261       6.13101999       27      -0.08455628       0.10589822       0.03589926
H        8.68115697       6.98241215       1.41245172       28       0.15092927       0.05734488      -0.00917836
H        4.52928045       1.36514136       4.18614878       29      -0.16710280       0.06234310       0.05590261
H        0.12519941       9.86614267       1.41460946       30      -0.12006561      -0.07231218      -0.00129247
H        4.27553010       4.25146871       4.18926224       31       0.17960244      -0.07015588       0.04647067
H        0.12481334       4.25130234       9.79263543       32      -0.14877534      -0.06894568       0.01133426
H        4.27747900       9.86784629       7.01900087       33       0.14901969      -0.08427213      -0.01498062
H        8.68082054       1.36588328       9.79232794       34       0.14775038       0.06623106       0.01309986
H        4.52931652       6.98035262       7.01487963       35      -0.12984423       0.07102439       0.02784334
C        7.59526030       5.80591427      10.50187252       36      -0.01328450       0.08202416      -0.04394376
C        5.61276620       0.19105053       6.30942384       37       0.11506858       0.04814208       0.08302791
C        1.21121849      11.03975270      10.50164909       38      -0.05732951      -0.04267314      -0.05716869
C        3.19121346       5.42455912       6.30896606       39       0.05876416      -0.06807473       0.08021724
C        1.21080243       5.42470222       0.70423020       40       0.00054350      -0.00720194       0.12693577
C        3.19353836      11.03956963       4.89711405       41      -0.05466050      -0.02359775      -0.05300765
C        7.59481862       0.19016679       0.70402051       42       0.10556251       0.08185837       0.07128662
C        5.61175505       5.80683333       4.89697097       43       0.10920483       0.06329080      -0.03060311
C        0.55485039       6.78799794       0.56907475       44      -0.04280796       0.04537335      -0.09018538
C        3.84804177       1.17133415       5.03203962       45       0.02969944       0.13135847       0.09503813
C        8.25383038      10.05795430       0.57019396       46      -0.11831579      -0.04968914      -0.11030949
C        4.95914583       4.44388678       5.03367271       47      -0.03063244      -0.11126736       0.04366576
C        8.25135915       4.44355530      10.63648618       48       0.03285826      -0.07545725       0.14387250
C        4.95887299      10.05845341       6.17451529       49      -0.00623940      -0.04896396      -0.10016796
C        0.55482214       1.17231729      10.63537953       50       0.03595803       0.08738256       0.13716355
C        3.84663796       6.78766169       6.17364000       51      -0.01211486       0.05360794      -0.08710499
Br       8.65441058       6.46628016       7.14737891       52       0.01093946      -0.32594192      -0.31497541
Br       4.56474905       0.85060243       9.66045083       53      -0.01793721      -0.33791208       0.32773891
Br       0.15687739      10.37910637       7.14700843       54      -0.01982867       0.31591272      -0.30699781
Br       4.24759641       4.75944255       9.66414562       55       0.01414697       0.33249086       0.32058001
Br       0.15247251       4.75973500       4.06117334       56      -0.01363478       0.33447492       0.31972355
Br       4.24239906      10.37820648       1.54316777       57       0.01906117       0.30639932      -0.30076787
Br       8.64394192       0.85045351       4.06130816       58       0.02250922      -0.31343675       0.30248401
Br       4.55695099       6.46612573       1.54480945       59      -0.01362178      -0.33937088      -0.32752359
Br       6.29111678       8.67058721       9.22469483       60      -0.74810863       0.05548323       0.09077884
Br       6.92079809       3.05778789       7.58526846       61       0.77480823       0.05656633      -0.09743515
Br       2.51605210       8.16727520       9.21743845       62       0.78272641      -0.05032337       0.10990418
Br       1.88708290       2.55095866       7.58922437       63      -0.74237597      -0.04641783      -0.09806740
Br       2.51692049       2.55164169       1.98234623       64       0.75537390      -0.04782688      -0.09433366
Br       1.88731167       8.16601158       3.62257566       65      -0.75046694      -0.04680413       0.09137934
Br       6.29106014       3.05733948       1.98236103       66      -0.76253694       0.05655922      -0.09722188
Br       6.92143484       8.67558659       3.61433421       67       0.76938677       0.05127548       0.10672981
O        8.60298660       6.84106232      10.54872446       68      -0.10490716      -0.62100750       0.58687747
O        4.60820168       1.22559227       6.26277906       69       0.04567358      -0.59831232      -0.65521294
O        0.19944829      10.00536940      10.54759054       70       0.21108243       0.65377593       0.59009767
O        4.20243715       4.38993435       6.26279256       71      -0.18874609       0.65698618      -0.56391615
O        0.20463192       4.38998220       0.65850660       72       0.06257241       0.60598254      -0.64267975
O        4.19896955      10.00540143       4.94537467       73      -0.08140084       0.57651591       0.59173566
O        8.60765387       1.22543965       0.65853482       74      -0.21507698      -0.67913318      -0.59727645
O        4.60387956       6.84080452       4.94553448       75       0.15367691      -0.62158602       0.53535688
76
Lattice="8.80815902 0.0 0.0 1.4561993062961561e-05 11.23086207999056 0.0 0.00011086943796849835 4.0223894773079995e-05 11.208382659379483" Properties=species:S:1:pos:R:3:spacegroup_kinds:I:1:forces:R:3 spacegroup="P 1" unit_cell=conventional occupancy="_JSON {\"0\": {\"Sn\": 1}, \"1\": {\"Sn\": 1}, \"2\": {\"Sn\": 1}, \"3\": {\"Sn\": 1}, \"4\": {\"H\": 1}, \"5\": {\"H\": 1}, \"6\": {\"H\": 1}, \"7\": {\"H\": 1}, \"8\": {\"H\": 1}, \"9\": {\"H\": 1}, \"10\": {\"H\": 1}, \"11\": {\"H\": 1}, \"12\": {\"H\": 1}, \"13\": {\"H\": 1}, \"14\": {\"H\": 1}, \"15\": {\"H\": 1}, \"16\": {\"H\": 1}, \"17\": {\"H\": 1}, \"18\": {\"H\": 1}, \"19\": {\"H\": 1}, \"20\": {\"H\": 1}, \"21\": {\"H\": 1}, \"22\": {\"H\": 1}, \"23\": {\"H\": 1}, \"24\": {\"H\": 1}, \"25\": {\"H\": 1}, \"26\": {\"H\": 1}, \"27\": {\"H\": 1}, \"28\": {\"H\": 1}, \"29\": {\"H\": 1}, \"30\": {\"H\": 1}, \"31\": {\"H\": 1}, \"32\": {\"H\": 1}, \"33\": {\"H\": 1}, \"34\": {\"H\": 1}, \"35\": {\"H\": 1}, \"36\": {\"C\": 1}, \"37\": {\"C\": 1}, \"38\": {\"C\": 1}, \"39\": {\"C\": 1}, \"40\": {\"C\": 1}, \"41\": {\"C\": 1}, \"42\": {\"C\": 1}, \"43\": {\"C\": 1}, \"44\": {\"C\": 1}, \"45\": {\"C\": 1}, \"46\": {\"C\": 1}, \"47\": {\"C\": 1}, \"48\": {\"C\": 1}, \"49\": {\"C\": 1}, \"50\": {\"C\": 1}, \"51\": {\"C\": 1}, \"52\": {\"Br\": 1}, \"53\": {\"Br\": 1}, \"54\": {\"Br\": 1}, \"55\": {\"Br\": 1}, \"56\": {\"Br\": 1}, \"57\": {\"Br\": 1}, \"58\": {\"Br\": 1}, \"59\": {\"Br\": 1}, \"60\": {\"Br\": 1}, \"61\": {\"Br\": 1}, \"62\": {\"Br\": 1}, \"63\": {\"Br\": 1}, \"64\": {\"Br\": 1}, \"65\": {\"Br\": 1}, \"66\": {\"Br\": 1}, \"67\": {\"Br\": 1}, \"68\": {\"O\": 1}, \"69\": {\"O\": 1}, \"70\": {\"O\": 1}, \"71\": {\"O\": 1}, \"72\": {\"O\": 1}, \"73\": {\"O\": 1}, \"74\": {\"O\": 1}, \"75\": {\"O\": 1}}" energy=-373.36517333984375 free_energy=-373.36517333984375 stress="-0.014237020164728165 6.74144466756843e-05 0.00017948253662325442 6.74144466756843e-05 -0.006067023612558842 -0.00011529731273185462 0.00017948253662325442 -0.00011529731273185462 -0.0048215193673968315" pbc="T T T"
Sn       8.81314483       8.41985012       8.79056591        0      -0.05908133       0.02253123       0.21163881
Sn       4.40925755       2.80654749       8.02164131        1      -0.05136397       0.00142214      -0.23330736
Sn       0.00128728       2.80719081       2.41677673        2      -0.00766819      -0.01882005      -0.22687705
Sn       4.40795927       8.41819059       3.18768876        3      -0.05076290       0.03995042       0.21275705
H        7.07581841       5.88012099       9.54171536        4      -0.03893236      -0.04027625       0.01150992
H        6.13401538       0.26644529       7.26690060        5       0.05833057      -0.04339388       0.03444924
H        1.72881121      10.96930116       9.54218928        6       0.05930410       0.00896324      -0.03849506
H        2.67175677       5.35348051       7.26737684        7      -0.05207184       0.01766209       0.02577927
H        1.72893686       5.35448237       1.66328438        8       0.07451697       0.02641553       0.05004775
H        2.67277673      10.97058853       3.93689957        9      -0.05233451       0.01543991      -0.02453054
H        7.07525662       0.26292572       1.66028678       10      -0.07261121      -0.01774096       0.07959656
H        6.13164192       5.87871582       3.93681563       11       0.03809287      -0.02093726      -0.01461177
H        6.87519584       5.98306609       0.10696611       12      -0.05853218      -0.05226379      -0.13253880
H        6.33131456       0.36510700       5.49635004       13       0.08511867      -0.03705050       0.10265448
H        1.92926500      10.87110049       0.10649242       14       0.04901168       0.01141280      -0.13686147
H        2.47351733       5.25209896       5.49420303       15      -0.05205831       0.02752730       0.14550850
H        1.92740695       5.25404161      11.09848462       16       0.07990001       0.03374564       0.13208133
H        2.47468731      10.87210542       5.71042693       17      -0.08073705       0.01891387      -0.12682389
H        6.87719216       0.36394437      11.09734705       18      -0.03015693      -0.03359343       0.15576690
H        6.33312003       5.98070578       5.70968946       19       0.02915623      -0.03575302      -0.16642477
H        1.32109434       7.56860469       0.52603854       20       0.03176664       0.06369051       0.00835935
H        3.07841056       1.94960404       5.07373811       21      -0.00398423       0.06575665      -0.00369172
H        7.48408499       9.28189446       0.52885924       22      -0.07250528      -0.11996999       0.01296875
H        5.72631123       3.66506025       5.07567446       23       0.04521960      -0.07210135      -0.02052734
H        7.48352835       3.66424560      10.68025420       24      -0.02325157      -0.07569823      -0.01241845
H        5.72803106       9.28061881       6.13198387       25       0.00156404      -0.04271498       0.01548605
H        1.32164397       1.95161677      10.67925474       26       0.05021738       0.07923672      -0.02657272
H        3.08116775       7.56817681       6.13048520       27      -0.07743399       0.09055887       0.01760116
H        8.68162488       6.98476015       1.41312573       28       0.15635671       0.05288020      -0.02242876
H        4.52674106       1.36761090       4.18345604       29      -0.16167971       0.05551078       0.07439288
H        0.12271989       9.86584753       1.41417027       30      -0.12162548      -0.07097565       0.00174875
H        4.27789831       4.24988445       4.18984544       31       0.13843864      -0.07356423       0.00438757
H        0.12191632       4.25111172       9.79170404       32      -0.12213317      -0.07484549      -0.00967910
H        4.28011401       9.86639317       7.02020392       33       0.12546508      -0.07393549      -0.00271662
H        8.68198517       1.36793053       9.79019181       34       0.15607870       0.05699826       0.03924322
H        4.52658862       6.98226356       7.01350470       35      -0.09965784       0.07535118       0.06884462
C        7.59403013       5.80709517      10.50223538       36      -0.04129714      -0.04946917      -0.11520527
C        5.61329797       0.19316835       6.30938549       37       0.09684238      -0.10942921       0.09713551
C        1.21004917      11.03964724      10.50060263       38       0.00548008       0.04162312      -0.07275663
C        3.19170436       5.42444484       6.30912726       39      -0.04841840       0.01079929       0.07190327
C        1.21053586       5.42558827       0.70527916       40       0.02024555       0.05796501       0.04197316
C        3.19219152      11.04057162       4.89555628       41      -0.02086332       0.03875682      -0.04992904
C        7.59553473       0.19107307       0.70442915       42      -0.00180846      -0.00054255       0.00383933
C        5.61181425       5.80850692       4.89584120       43       0.12714875      -0.08628935      -0.02813880
C        0.55335546       6.78984161       0.56748616       44       0.04066343       0.03560665       0.01122177
C        3.84907464       1.17298829       5.03267921       45      -0.02523313       0.07958803       0.00167634
C        8.25170632      10.05755752       0.56921638       46      -0.04068493       0.02235931      -0.04474653
C        4.95800678       4.44246894       5.03468260       47       0.05973276      -0.01304722      -0.00881322
C        8.25203445       4.44181727      10.63740564       48      -0.06716519       0.01555258       0.09966478
C        4.95782893      10.05849016       6.17389005       49       0.09249082      -0.02913034      -0.04365130
C        0.55434086       1.17372013      10.63578910       50       0.02104078       0.02682629       0.03625721
C        3.84600398       6.78910689       6.17266516       51      -0.03821847       0.00148317      -0.06378371
Br       8.65672053       6.46328032       7.14455159       52       0.01078762      -0.30869108      -0.29973140
Br       4.56175578       0.84761776       9.66338038       53      -0.01831911      -0.31283176       0.30278879
Br       0.15631270      10.38203787       7.14406597       54      -0.02479735       0.28809643      -0.28374338
Br       4.24890258       4.76064984       9.66709603       55       0.01473108       0.31478590       0.30442214