100
Lattice="5.14496888 0.0 0.0 -0.00013287281469951371 10.371439559148858 0.0 -5.950174922290146e-05 -0.5692082018914871 19.453906026905333" Properties=species:S:1:pos:R:3:spacegroup_kinds:I:1:forces:R:3 spacegroup="P 1" unit_cell=conventional occupancy="_JSON {\"0\": {\"Zn\": 1}, \"1\": {\"Zn\": 1}, \"2\": {\"Zn\": 1}, \"3\": {\"Zn\": 1}, \"4\": {\"P\": 1}, \"5\": {\"P\": 1}, \"6\": {\"P\": 1}, \"7\": {\"P\": 1}, \"8\": {\"H\": 1}, \"9\": {\"H\": 1}, \"10\": {\"H\": 1}, \"11\": {\"H\": 1}, \"12\": {\"H\": 1}, \"13\": {\"H\": 1}, \"14\": {\"H\": 1}, \"15\": {\"H\": 1}, \"16\": {\"H\": 1}, \"17\": {\"H\": 1}, \"18\": {\"H\": 1}, \"19\": {\"H\": 1}, \"20\": {\"H\": 1}, \"21\": {\"H\": 1}, \"22\": {\"H\": 1}, \"23\": {\"H\": 1}, \"24\": {\"H\": 1}, \"25\": {\"H\": 1}, \"26\": {\"H\": 1}, \"27\": {\"H\": 1}, \"28\": {\"H\": 1}, \"29\": {\"H\": 1}, \"30\": {\"H\": 1}, \"31\": {\"H\": 1}, \"32\": {\"H\": 1}, \"33\": {\"H\": 1}, \"34\": {\"H\": 1}, \"35\": {\"H\": 1}, \"36\": {\"H\": 1}, \"37\": {\"H\": 1}, \"38\": {\"H\": 1}, \"39\": {\"H\": 1}, \"40\": {\"H\": 1}, \"41\": {\"H\": 1}, \"42\": {\"H\": 1}, \"43\": {\"H\": 1}, \"44\": {\"C\": 1}, \"45\": {\"C\": 1}, \"46\": {\"C\": 1}, \"47\": {\"C\": 1}, \"48\": {\"C\": 1}, \"49\": {\"C\": 1}, \"50\": {\"C\": 1}, \"51\": {\"C\": 1}, \"52\": {\"C\": 1}, \"53\": {\"C\": 1}, \"54\": {\"C\": 1}, \"55\": {\"C\": 1}, \"56\": {\"C\": 1}, \"57\": {\"C\": 1}, \"58\": {\"C\": 1}, \"59\": {\"C\": 1}, \"60\": {\"C\": 1}, \"61\": {\"C\": 1}, \"62\": {\"C\": 1}, \"63\": {\"C\": 1}, \"64\": {\"C\": 1}, \"65\": {\"C\": 1}, \"66\": {\"C\": 1}, \"67\": {\"C\": 1}, \"68\": {\"C\": 1}, \"69\": {\"C\": 1}, \"70\": {\"C\": 1}, \"71\": {\"C\": 1}, \"72\": {\"C\": 1}, \"73\": {\"C\": 1}, \"74\": {\"C\": 1}, \"75\": {\"C\": 1}, \"76\": {\"C\": 1}, \"77\": {\"C\": 1}, \"78\": {\"C\": 1}, \"79\": {\"C\": 1}, \"80\": {\"C\": 1}, \"81\": {\"C\": 1}, \"82\": {\"C\": 1}, \"83\": {\"C\": 1}, \"84\": {\"C\": 1}, \"85\": {\"C\": 1}, \"86\": {\"C\": 1}, \"87\": {\"C\": 1}, \"88\": {\"O\": 1}, \"89\": {\"O\": 1}, \"90\": {\"O\": 1}, \"91\": {\"O\": 1}, \"92\": {\"O\": 1}, \"93\": {\"O\": 1}, \"94\": {\"O\": 1}, \"95\": {\"O\": 1}, \"96\": {\"O\": 1}, \"97\": {\"O\": 1}, \"98\": {\"O\": 1}, \"99\": {\"O\": 1}}" energy=-660.39501953125 free_energy=-660.39501953125 stress="3.0490577046293765e-05 -7.30428218957968e-05 0.00013020157348364592 -7.30428218957968e-05 -0.0032099327072501183 0.003588740946725011 0.00013020157348364592 0.003588740946725011 -0.006024372763931751" pbc="T T T"
Zn       1.14421123       3.38266058       9.65339687        0      -0.06108645      -0.19224134      -0.02584229
Zn       3.71572441       1.23439959       9.79945533        1      -0.06139423       0.20541316       0.04622910
Zn       3.99974138       6.42014265       9.80061182        2       0.04163700       0.19945596       0.03296831
Zn       1.42612291       8.56841749       9.65250708        3       0.06810296      -0.21527244      -0.01345347
P        1.32521081       5.91281934       7.99448314        4       0.12281047       0.12999076       0.50484961
P        3.89958686       9.07818140      11.45932028        5       0.06278719      -0.24160641      -0.51792139
P        3.81451098       3.89024360      11.45955324        6       0.14162767      -0.11055747      -0.50582004
P        1.24135671       0.72704150       7.99465604        7       0.11478363       0.07811075       0.47998711
H        0.38497730       7.56877597       4.13629849        8       0.05305539      -0.00522707       0.01987705
H        2.95658442       7.42017681      15.31674781        9       0.04211932       0.00044891      -0.02995287
H        4.75828269       2.23425217      15.31732717       10      -0.07225218       0.01970792      -0.00735952
H        2.18673092       2.38297722       4.13512353       11      -0.06298415      -0.01083867       0.01588301
H        0.11610819       6.20741716       5.98503560       12       0.03068545       0.00159515      -0.13048548
H        2.68885572       8.78183540      13.46790685       13      -0.01664297      -0.00218154       0.14246938
H        5.02687419       3.59577569      13.46791200       14      -0.03475501      -0.00445327       0.13226610
H        2.45433141       1.02239829       5.98501117       15       0.00296494      -0.00641415      -0.13871849
H        1.28318684       7.49433575       6.24847031       16       0.03716106      -0.04514831      -0.13108328
H        3.85762240       7.49486248      13.20423728       17       0.02792276       0.02326729       0.13137065
H        3.85869671       2.30932906      13.20386379       18      -0.03542042      -0.00501287       0.13593152
H        1.28606445       2.30742604       6.24828040       19      -0.03657311      -0.00423189      -0.13585255
H        3.09379650       4.42698644       6.64091887       20      -0.09836324       0.07127382      -0.03024754
H        0.52206774       0.18989000      12.81065191       21      -0.09870832      -0.06185204       0.01224802
H        2.04871751       5.37489755      12.81136182       22       0.09487781      -0.05463614       0.00515407
H        4.62160378       9.61475920       6.64123394       23       0.09521921       0.04386583       0.02537164
H        4.68171468       3.51435146       5.00011823       24      -0.02414715       0.01452164       0.04469099
H        2.10948347       1.10249126      14.45128792       25      -0.02049447      -0.01339208      -0.03494319
H        0.46151512       6.28867782      14.45098721       26       0.00167485       0.00088213      -0.03679132
H        3.03467191       8.70136962       5.00106391       27      -0.04048418      -0.03740285       0.06074774
H        0.36931173       8.31616283       1.82092909       28      -0.01212668       0.04628289      -0.01215105
H        2.94239173       6.67257122      17.63122347       29      -0.01924289      -0.04943747       0.02156198
H        4.77342716       1.48677483      17.63097936       30      -0.00054205      -0.03995770       0.00081620
H        2.20067108       3.13068527       1.82055507       31      -0.00489262       0.02789034      -0.00373705
H        4.69478419       4.33203537       2.66190872       32      -0.02737375       0.00697620      -0.04127759
H        2.12228641       0.28622169      16.79032025       33      -0.04904288      -0.03112921       0.02005342
H        0.44815312       5.47251436      16.79003956       34       0.04035951      -0.02835053       0.03647988
H        3.02148453       9.51697390       2.66147692       35       0.00154299       0.00246356      -0.05995949
H        3.71611163       5.74721424       0.91076716       36       0.00526802      -0.02118444      -0.01134913
H        1.14267855       9.24195914      18.54174573       37      -0.00611033       0.01431053      -0.00597085
H        1.42818798       4.05685652      18.54146675       38       0.01717515       0.00786041      -0.01474027
H        4.00044060       0.56139766       0.91006732       39       0.01334086      -0.01185203       0.00588384
H        2.02360782       7.41786386       0.17328882       40      -0.00035069      -0.00270730       0.00846232
H        4.59557675       7.56936284      19.27891676       41       0.01113130       0.02533318      -0.06089734
H        3.11886176       2.38505514      19.27888695       42       0.00636222       0.00094090      -0.00394204
H        0.54776079       2.23296246       0.17333941       43      -0.00172560      -0.02072359       0.04339135
C        2.10843531       5.75459306       5.26455913       44       0.04026336      -0.00563975       0.02330013
C        4.68145491       9.23599343      14.18612168       45      -0.04538563      -0.09973453       0.05476776
C        3.03209575       4.04842130      14.18594341       46       0.04953574      -0.05961742       0.04753540
C        0.46108010       0.56763322       5.26454244       47       0.03800138       0.05771786       0.02050879
C        3.01608750       5.67739680       2.95711399       48       0.03060396      -0.02231897      -0.09688731
C        0.44287323       9.31122754      16.49556539       49       0.02039248       0.01161651       0.04396069
C        2.12668496       4.12431204      16.49553051       50      -0.02746439       0.04735334       0.02740451
C        4.69945523       0.49211693       2.95636925       51      -0.03530903      -0.04502253      -0.04500668
C        1.12609520       7.16225029       3.45051235       52       0.03296003      -0.04002202      -0.03428913
C        3.69752421       7.82675670      16.00185561       53       0.06077345       0.06575138       0.04194543
C        4.01612185       2.64184013      16.00275437       54      -0.00790702       0.03125019      -0.05362940
C        1.44473451       1.97624099       3.44988835       55      -0.03263715      -0.05907679       0.01772593
C        2.06816600       6.20526473       3.90540326       56      -0.01361866       0.00055768       0.01985815
C        4.64026843       8.78357041      15.54697263       57      -0.01576322       0.01537361      -0.04988481
C        3.07445647       3.59838308      15.54666105       58       0.00658300      -0.01341639      -0.03109281
C        0.50247705       1.01903594       3.90523449       59      -0.00123527      -0.00182626       0.00322092
C        1.16709121       6.39535295       6.26039334       60       0.03257269      -0.01497453      -0.19007050
C        3.73769223       8.59249242      13.19293339       61       0.12627301       0.07167214       0.16236171
C        3.97622507       3.40638447      13.19276509       62      -0.06181630       0.08392745       0.17795601
C        1.40452965       1.21013947       6.25902741       63      -0.10563079      -0.07592106      -0.14506125
C        3.03395174       4.77608969       5.61311436       64       0.01101558      -0.08178405      -0.03212722
C        0.46054716      -0.15918919      13.83769586       65       0.11053935       0.15480572       0.09049625
C        2.10923810       5.02644071      13.83841656       66      -0.11315171       0.13614678       0.08304660
C        4.68227011       9.96202373       5.61487663       67      -0.12284438      -0.11508448      -0.17050013
C        3.95287199       4.25751723       4.67841580       68       0.04677491      -0.05604024       0.07946081
C        1.38108770       0.35972241      14.77463289       69      -0.00841583       0.01900107      -0.16017437
C        1.18806569       5.54533884      14.77474673       70       0.04768117      -0.00565261      -0.13614002
C        3.75956185       9.44426695       4.67837777       71       0.09564412       0.03048682       0.11973211
C        1.11114006       7.58384035       2.13389770       72       0.06102999       0.02679688      -0.17169918
C        3.68317802       7.40593929      17.31919905       73       0.05490008      -0.04087810       0.11821815
C        4.03009407       2.21827523      17.31775302       74      -0.00331288      -0.05585895       0.21400443
C        1.45893607       2.39722472       2.13399209       75      -0.01123610       0.07229981      -0.18796465
C        3.96049989       4.70932605       3.37430492       76      -0.03545047       0.03920259       0.03641087
C        1.38868444      -0.09423218      16.07703593       77       0.00362291       0.02155207       0.00651783
C        1.18157945       5.09145259      16.07769868       78      -0.00997141       0.02133850      -0.02735610
C        3.75304632       9.89603555       3.37428648       79       0.07578553       0.04808047       0.06240779
C        2.98370631       6.14332173       1.61453101       80      -0.08821438       0.04814371       0.04948740
C        0.41051833       8.84561605      17.83678831       81      -0.04010228      -0.02863142      -0.00031160
C        2.16021740       3.65974618      17.83602765       82       0.08040474      -0.07546867       0.07058775
C        4.73350882       0.95750015       1.61453561       83       0.01168248      -0.00433320       0.02130745
C        2.04557018       7.07490755       1.20721436       84      -0.10809509       0.06432410       0.04933360
C        4.61898213       7.91355285      18.24352689       85      -0.14322291      -0.10103676       0.05163428
C        3.09882697       2.72755326      18.24499093       86       0.03500072      -0.02183313      -0.05263564
C        0.52575381       1.88798001       1.20790493       87       0.12784041       0.11666458      -0.03444238
O        0.51934696       6.97248776       8.84603632       88      -0.08999599       0.09814593      -0.00960941
O        3.09330942       8.01515085      10.60857960       89      -0.08736359      -0.05509991       0.01346254
O        4.62423233       2.82904424      10.60866562       90       0.05772886      -0.06412228       0.02368743
O        2.05063897       1.78776884       8.84527721       91       0.06966148       0.06707984      -0.02238027
O        2.80392910       5.96832909       8.37661472       92       0.09268733      -0.04617032      -0.10317922
O        0.23275620       9.01808153      11.07712934       93       0.08813711       0.07055304       0.11767125
O        2.34066090       3.83375910      11.07806304       94      -0.25860450       0.03967018       0.05114925
O        4.91180134       0.78393951       8.37672573       95      -0.21796435      -0.04617539      -0.08038861
O        0.67103821       4.53267936       8.17716299       96      -0.02412890      -0.10988349      -0.09067534
O        3.24275587       0.08464627      11.27696060       97      -0.01354744       0.13772790       0.07729195
O        4.47291308       5.27090422      11.27679792       98      -0.01540063       0.03689552       0.10246888
O        1.89827898       9.71632934       8.17849681       99      -0.01820148       0.00670694      -0.12761450
100
Lattice="5.14496888 0.0 0.0 -0.00013287281469951371 10.371439559148858 0.0 -5.950174922290146e-05 -0.5692082018914871 19.453906026905333" Properties=species:S:1:pos:R:3:spacegroup_kinds:I:1:forces:R:3 spacegroup="P 1" unit_cell=conventional occupancy="_JSON {\"0\": {\"Zn\": 1}, \"1\": {\"Zn\": 1}, \"2\": {\"Zn\": 1}, \"3\": {\"Zn\": 1}, \"4\": {\"P\": 1}, \"5\": {\"P\": 1}, \"6\": {\"P\": 1}, \"7\": {\"P\": 1}, \"8\": {\"H\": 1}, \"9\": {\"H\": 1}, \"10\": {\"H\": 1}, \"11\": {\"H\": 1}, \"12\": {\"H\": 1}, \"13\": {\"H\": 1}, \"14\": {\"H\": 1}, \"15\": {\"H\": 1}, \"16\": {\"H\": 1}, \"17\": {\"H\": 1}, \"18\": {\"H\": 1}, \"19\": {\"H\": 1}, \"20\": {\"H\": 1}, \"21\": {\"H\": 1}, \"22\": {\"H\": 1}, \"23\": {\"H\": 1}, \"24\": {\"H\": 1}, \"25\": {\"H\": 1}, \"26\": {\"H\": 1}, \"27\": {\"H\": 1}, \"28\": {\"H\": 1}, \"29\": {\"H\": 1}, \"30\": {\"H\": 1}, \"31\": {\"H\": 1}, \"32\": {\"H\": 1}, \"33\": {\"H\": 1}, \"34\": {\"H\": 1}, \"35\": {\"H\": 1}, \"36\": {\"H\": 1}, \"37\": {\"H\": 1}, \"38\": {\"H\": 1}, \"39\": {\"H\": 1}, \"40\": {\"H\": 1}, \"41\": {\"H\": 1}, \"42\": {\"H\": 1}, \"43\": {\"H\": 1}, \"44\": {\"C\": 1}, \"45\": {\"C\": 1}, \"46\": {\"C\": 1}, \"47\": {\"C\": 1}, \"48\": {\"C\": 1}, \"49\": {\"C\": 1}, \"50\": {\"C\": 1}, \"51\": {\"C\": 1}, \"52\": {\"C\": 1}, \"53\": {\"C\": 1}, \"54\": {\"C\": 1}, \"55\": {\"C\": 1}, \"56\": {\"C\": 1}, \"57\": {\"C\": 1}, \"58\": {\"C\": 1}, \"59\": {\"C\": 1}, \"60\": {\"C\": 1}, \"61\": {\"C\": 1}, \"62\": {\"C\": 1}, \"63\": {\"C\": 1}, \"64\": {\"C\": 1}, \"65\": {\"C\": 1}, \"66\": {\"C\": 1}, \"67\": {\"C\": 1}, \"68\": {\"C\": 1}, \"69\": {\"C\": 1}, \"70\": {\"C\": 1}, \"71\": {\"C\": 1}, \"72\": {\"C\": 1}, \"73\": {\"C\": 1}, \"74\": {\"C\": 1}, \"75\": {\"C\": 1}, \"76\": {\"C\": 1}, \"77\": {\"C\": 1}, \"78\": {\"C\": 1}, \"79\": {\"C\": 1}, \"80\": {\"C\": 1}, \"81\": {\"C\": 1}, \"82\": {\"C\": 1}, \"83\": {\"C\": 1}, \"84\": {\"C\": 1}, \"85\": {\"C\": 1}, \"86\": {\"C\": 1}, \"87\": {\"C\": 1}, \"88\": {\"O\": 1}, \"89\": {\"O\": 1}, \"90\": {\"O\": 1}, \"91\": {\"O\": 1}, \"92\": {\"O\": 1}, \"93\": {\"O\": 1}, \"94\": {\"O\": 1}, \"95\": {\"O\": 1}, \"96\": {\"O\": 1}, \"97\": {\"O\": 1}, \"98\": {\"O\": 1}, \"99\": {\"O\": 1}}" energy=-660.4129638671875 free_energy=-660.4129638671875 stress="0.0001107251737266779 -8.765779784880579e-05 7.98498876974918e-05 -8.765779784880579e-05 -0.0027885353192687035 0.0027678164187818766 7.98498876974918e-05 0.0027678164187818766 -0.0057543194852769375" pbc="T T T"
Zn       1.14330494       3.38033990       9.65342876        0      -0.05149877      -0.16649228      -0.03448870
Zn       3.71518096       1.23725859       9.80018039        1      -0.05216764       0.16579543       0.05294527
Zn       4.00038633       6.42252798       9.80128704        2       0.01886008       0.17030075       0.02615429
Zn       1.42640745       8.56731549       9.65239664        3       0.06318439      -0.18684542      -0.01426811
P        1.32395483       5.91522132       7.99710863        4       0.11161099      -0.02560624       0.41831136
P        3.89901709       9.07692868      11.45650370        5       0.05930749      -0.09084499      -0.40250471
P        3.81536219       3.88977497      11.45661013        6       0.02073795      -0.10465392      -0.42175367
P        1.24205848       0.73004089       7.99754441        7       0.00729276      -0.05674449       0.38058513
H        0.38575418       7.56819772       4.13589973        8       0.03599685       0.00935711       0.02175252
H        2.95690725       7.42171974      15.31500431        9       0.04173273      -0.00095864      -0.01939896
H        4.75553393       2.23522679      15.31592682       10      -0.05439775       0.01093647      -0.01076134
H        2.18495615       2.38395423       4.13445270       11      -0.05617152      -0.00805742       0.02698525
H        0.11661363       6.20867419       5.98246202       12       0.03231986      -0.00044119      -0.12552138
H        2.68871459       8.78202966      13.46918771       13      -0.01739442      -0.00228294       0.13632959
H        5.02590452       3.59664141      13.46938004       14      -0.06153782      -0.01037371       0.12372579
H        2.45274861       1.02279113       5.98220431       15      -0.02526465      -0.00281022      -0.12389633
H        1.28391276       7.49406080       6.24620271       16       0.03788643      -0.03109490      -0.13032581
H        3.85700808       7.49592420      13.20552194       17       0.02797917      -0.00652072       0.12987776
H        3.85746240       2.30987700      13.20575901       18      -0.03453394      -0.00429414       0.13313800
H        1.28396842       2.30911707       6.24538604       19      -0.02765980      -0.06317596      -0.12775239
H        3.09139155       4.42796979       6.63916835       20      -0.08967972       0.04746185       0.02417739
H        0.51935964       0.18968240      12.81011797       21      -0.09060474      -0.05650522       0.02098203
H        2.05014552       5.37418485      12.81142289       22       0.08052048      -0.02849807      -0.03874701
H        4.62195280       9.61589941       6.64064791       23       0.08644095       0.04113768      -0.00490576
H        4.67947712       3.51464689       5.00037401       24       0.01797566      -0.02494403       0.05434887
H        2.10813672       1.10285316      14.44936322       25      -0.01066853      -0.00323389      -0.03912675
H        0.46017593       6.28915283      14.44928404       26       0.00296061       0.00625252      -0.03929197
H        3.03335088       8.70131583       5.00128909       27      -0.01146114      -0.00798648       0.04671611
H        0.36887786       8.31840891       1.81920553       28       0.02074040       0.01046384       0.00163830
H        2.94089296       6.67176279      17.63121498       29      -0.01520438      -0.04501648       0.01717936
H        4.77210981       1.48684143      17.63066066       30       0.01238240      -0.05582411       0.01242508
H        2.19945247       3.13182483       1.81875354       31       0.02488289       0.05401491      -0.00978568
H        4.69306124       4.33368843       2.66045815       32      -0.02347599       0.00052468      -0.03730218
H        2.11999236       0.28598005      16.78930177       33      -0.02011584      -0.01357269       0.04122738
H        0.44802847       5.47227392      16.78946758       34       0.02488354      -0.01410411       0.03755768
H        3.01965285       9.51758681       2.65952274       35       0.05807985       0.03011497       0.00124692
H        3.71570881       5.74724953       0.90985693       36      -0.04191887       0.00548184       0.02452880
H        1.14157987       9.24267541      18.54064977       37      -0.02127579       0.00586293      -0.01224162
H        1.42740266       4.05812586      18.53999379       38       0.01389806       0.00304803       0.00554615
H        3.99988276       0.56195632       0.90912827       39      -0.01369943      -0.02538947      -0.02317022
H        2.02317527       7.41825495       0.17276567       40      -0.00477150       0.00666085      -0.01537040
H        4.59442854       7.56999900      19.27716645       41       0.00960199       0.00395053      -0.00314480
H        3.11823296       2.38549767      19.27832326       42       0.00608119       0.00577240      -0.01962742
H        0.54734067       2.23417668       0.17283753       43      -0.00206738      -0.00286445      -0.01296957
C        2.10722462       5.75595169       5.26314838       44       0.13500977      -0.10069773       0.01385161
C        4.67954152       9.23432551      14.18660482       45       0.07735371       0.04653934       0.01048358
C        3.03206564       4.04794926      14.18579300       46      -0.06764632       0.05165239       0.05902691
C        0.46034912       0.56961324       5.26348576       47      -0.06189729      -0.06333293       0.02352139
C        3.01547688       5.67760780       2.95470982       48      -0.00232524      -0.02451027      -0.00973784
C        0.44190878       9.31224732      16.49553324       49       0.01161227       0.01944964       0.01199215
C        2.12435017       4.12522004      16.49595891       50       0.02078725       0.02995781      -0.01905133
C        4.69802838       0.49122989       2.95497169       51       0.02448072       0.01876568      -0.06434302
C        1.12565550       7.16269806       3.44920986       52       0.05328873      -0.05064619      -0.06609790
C        3.69725493       7.82849088      16.00088670       53       0.01783766      -0.00573497       0.13848007
C        4.01502391       2.64308815      16.00200826       54      -0.02027495      -0.00366072       0.03944189
C        1.44297037       1.97614087       3.45050597       55      -0.00303736       0.01120228      -0.14792956
C        2.06726527       6.20551769       3.90400150       56      -0.01930476       0.01043812       0.02078501
C        4.63858432       8.78426063      15.54584331       57       0.00792938       0.01253057      -0.00058478
C        3.07352537       3.59886726      15.54590194       58      -0.00863541      -0.00814897      -0.00088712
C        0.50213942       1.01933572       3.90489254       59      -0.02617985      -0.00689233      -0.01289482
C        1.16794508       6.39542758       6.25767375       60      -0.01311314      -0.00401381      -0.09525043
C        3.73752391       8.59264771      13.19423530       61       0.09818181       0.08564410       0.08879655
C        3.97415019       3.40704512      13.19455156       62       0.00678119       0.07312921       0.08879513
C        1.40205474       1.20966962       6.25765288       63      -0.05340666       0.00475168      -0.09689449
C        3.03397922       4.77499982       5.61237870       64      -0.08206518       0.02047554      -0.07847959
C        0.46100665      -0.15723070      13.83829046       65      -0.05253434       0.01725657       0.02408782
C        2.10703925       5.02895608      13.83822885       66       0.04230107      -0.00530407       0.07463050
C        4.67959604       9.96010656       5.61212050       67       0.06170304       0.02873433      -0.02847126
C        3.95205190       4.25678487       4.67912369       68       0.01796872       0.00839151      -0.03660752
C        1.37970016       0.36042464      14.77193333       69       0.04419933       0.02224717      -0.01851323
C        1.18805054       5.54673091      14.77185334       70      -0.01841109       0.00221257      -0.00258492
C        3.75985749       9.44497637       4.67957607       71      -0.03471944      -0.04218145      -0.01929764
C        1.11122497       7.58386031       2.13136467       72      -0.05123268       0.10362150      -0.09417905
C        3.68211366       7.40557429      17.32069854       73       0.01090649      -0.03110327      -0.03331661
C        4.02863891       2.21790193      17.31927134       74       0.03576230      -0.02804552       0.04306325
C        1.45877291       2.39873373       2.13104631       75      -0.04828329      -0.00094265      -0.02732360
C        3.95879132       4.71027740       3.37320965       76      -0.00358506      -0.00771216       0.08990999
C        1.38730998      -0.09381617      16.07661552       77      -0.01789544       0.02806197      -0.06631911
C        1.18106482       5.09222159      16.07693150       78      -0.01223060       0.03558291      -0.07575348
C        3.75340123       9.89767324       3.37371469       79      -0.03263967      -0.04654918       0.04665604
C        2.98132433       6.14379791       1.61454285       80      -0.02823939       0.03865057      -0.06706468
C        0.40858909       8.84664739      17.83556744       81      -0.06240120      -0.07324982       0.05053432
C        2.15938417       3.65997506      17.83575121       82       0.08021858      -0.06882047       0.05115071
C        4.73211039       0.95713794       1.61287240       83       0.11128893       0.07483755       0.04275799
C        2.04312218       7.07605318       1.20613058       84      -0.02541494       0.00227553       0.03013283
C        4.61631377       7.91234359      18.24310274       85      -0.04407866      -0.00041293       0.02399689
C        3.09887315       2.72745893      18.24360837       86      -0.02985837       0.00165224       0.04102440
C        0.52607744       1.88998507       1.20575203       87       0.04407609       0.01461908       0.04412140
O        0.51680574       6.97369485       8.84727336       88      -0.06848747       0.10167462      -0.01582054
O        3.09308111       8.01437980      10.60957210       89      -0.11641550      -0.07681940      -0.02296212
O        4.62469311       2.82731291      10.60841896       90       0.05502682      -0.04647029       0.02720010
O        2.05207567       1.78750827       8.84525443       91       0.07443282       0.12088508       0.00842517
O        2.80421081       5.96792069       8.37598436       92       0.06522326      -0.02765593      -0.08218791
O        0.23352277       9.01755611      11.07811464       93       0.06633692       0.06764886       0.10320388
O        2.33779423       3.83395753      11.07822421       94      -0.14356881       0.03806932       0.06612527
O        4.90900475       0.78367040       8.37620584       95      -0.12014052      -0.03298326      -0.08595139
O        0.66960782       4.53053633       8.17762469       96       0.02516215       0.02208858      -0.09938516
O        3.24105072       0.08730099      11.27823816       97       0.04226204       0.01964788       0.06851299
O        4.47219592       5.27133021      11.27665387       98      -0.01378627       0.02720471       0.08879071
O        1.89755936       9.71629271       8.17869420       99      -0.03810838       0.05799004      -0.12263414
100