92
Lattice="10.48346918 0.0 0.0 3.714875750883029 9.804154364072927 0.0 4.855909800364214 0.06339032821495949 9.954249402052733" Properties=species:S:1:pos:R:3:spacegroup_kinds:I:1:forces:R:3 spacegroup="P 1" unit_cell=conventional occupancy="_JSON {\"0\": {\"Cd\": 1}, \"1\": {\"Cd\": 1}, \"2\": {\"H\": 1}, \"3\": {\"H\": 1}, \"4\": {\"H\": 1}, \"5\": {\"H\": 1}, \"6\": {\"H\": 1}, \"7\": {\"H\": 1}, \"8\": {\"H\": 1}, \"9\": {\"H\": 1}, \"10\": {\"H\": 1}, \"11\": {\"H\": 1}, \"12\": {\"H\": 1}, \"13\": {\"H\": 1}, \"14\": {\"H\": 1}, \"15\": {\"H\": 1}, \"16\": {\"H\": 1}, \"17\": {\"H\": 1}, \"18\": {\"H\": 1}, \"19\": {\"H\": 1}, \"20\": {\"H\": 1}, \"21\": {\"H\": 1}, \"22\": {\"H\": 1}, \"23\": {\"H\": 1}, \"24\": {\"H\": 1}, \"25\": {\"H\": 1}, \"26\": {\"H\": 1}, \"27\": {\"H\": 1}, \"28\": {\"H\": 1}, \"29\": {\"H\": 1}, \"30\": {\"H\": 1}, \"31\": {\"H\": 1}, \"32\": {\"H\": 1}, \"33\": {\"H\": 1}, \"34\": {\"H\": 1}, \"35\": {\"H\": 1}, \"36\": {\"H\": 1}, \"37\": {\"H\": 1}, \"38\": {\"C\": 1}, \"39\": {\"C\": 1}, \"40\": {\"C\": 1}, \"41\": {\"C\": 1}, \"42\": {\"C\": 1}, \"43\": {\"C\": 1}, \"44\": {\"C\": 1}, \"45\": {\"C\": 1}, \"46\": {\"C\": 1}, \"47\": {\"C\": 1}, \"48\": {\"C\": 1}, \"49\": {\"C\": 1}, \"50\": {\"C\": 1}, \"51\": {\"C\": 1}, \"52\": {\"C\": 1}, \"53\": {\"C\": 1}, \"54\": {\"C\": 1}, \"55\": {\"C\": 1}, \"56\": {\"C\": 1}, \"57\": {\"C\": 1}, \"58\": {\"C\": 1}, \"59\": {\"C\": 1}, \"60\": {\"C\": 1}, \"61\": {\"C\": 1}, \"62\": {\"C\": 1}, \"63\": {\"C\": 1}, \"64\": {\"C\": 1}, \"65\": {\"C\": 1}, \"66\": {\"C\": 1}, \"67\": {\"C\": 1}, \"68\": {\"C\": 1}, \"69\": {\"C\": 1}, \"70\": {\"N\": 1}, \"71\": {\"N\": 1}, \"72\": {\"N\": 1}, \"73\": {\"N\": 1}, \"74\": {\"N\": 1}, \"75\": {\"N\": 1}, \"76\": {\"N\": 1}, \"77\": {\"N\": 1}, \"78\": {\"N\": 1}, \"79\": {\"N\": 1}, \"80\": {\"N\": 1}, \"81\": {\"N\": 1}, \"82\": {\"O\": 1}, \"83\": {\"O\": 1}, \"84\": {\"O\": 1}, \"85\": {\"O\": 1}, \"86\": {\"O\": 1}, \"87\": {\"O\": 1}, \"88\": {\"O\": 1}, \"89\": {\"O\": 1}, \"90\": {\"O\": 1}, \"91\": {\"O\": 1}}" energy=-596.7525634765625 free_energy=-596.7525634765625 stress="-0.003308199578896165 0.0049703698605299 -0.0019920137710869312 0.0049703698605299 -0.005161883309483528 0.0026178278494626284 -0.0019920137710869312 0.0026178278494626284 -0.008972241543233395" pbc="T T T"
Cd       7.63319260       4.09044935       3.05381688        0       0.44026640      -0.06821851      -0.03945663
Cd      11.39227138       5.77304906       6.88713267        1      -0.05798867       0.04258025       0.14800505
H        7.96006357       5.92459544       5.45141840        2      -0.16436332       0.11093885      -1.16285872
H       11.09376590       3.96044288       4.54749917        3      -0.48700953       0.02225249      -1.38959312
H        6.57151336       6.09967905       4.64258655        4       0.68357766       0.01153433      -0.26625326
H       12.50599594       3.78554947       5.32624796        5      -1.04240048       0.04241775      -0.10747772
H       12.78289411       3.85589101       3.08218080        6      -0.25089410       0.35424355      -0.27260250
H        6.26612982       5.96950413       6.90279574        7       0.32017043       0.55754590      -0.58958012
H       10.77403280       6.75060412       0.49284618        8       0.97283655      -0.49524844       0.43594837
H        8.24604612       3.11009775       9.42892131        9      -0.21301031       0.16432483       0.00956942
H        4.60012024       6.67580476       0.81125579       10      -0.09437781      -0.15454948       0.14028274
H       14.43441792       3.20502149       9.16949806       11       0.64052427       0.23808341      -0.28859386
H       18.50922614       8.84031439       9.77410699       12      -0.32866964      -0.65234858      -0.13262771
H        0.51435723       1.07461405       0.17381421       13       0.38505334       0.24470583       0.11215396
H       16.93189685       8.37485835       9.13878336       14       0.29133198      -0.12907970       0.03839968
H        2.10784616       1.50132470       0.79509342       15       0.67029226      -0.27216721       0.31027085
H        7.89145693       7.60160759       8.54920967       16       1.04915059      -0.85852516      -1.94061410
H       11.11495171       2.30055041       1.39977546       17      -0.15046801       0.29032946       0.85711503
H        8.66996200       0.86987836       1.69425636       18       0.35190499      -0.22303510       0.56759012
H       10.36732210       8.99881797       8.26359277       19      -0.83311236       0.71565020      -1.11574292
H       10.93245905       3.77933269       9.90424804       20       0.82658041      -1.13595140       0.17966387
H        8.07800019       6.10488415       0.00968375       21      -0.23694889       0.28123996      -0.17572406
H       11.97987748       1.53683789       7.23584558       22      -0.49978733       0.09596797       0.31314862
H        7.08178331       8.33200716       2.69738207       23      -0.82437497       0.07386462       0.95890880
H       10.60333222       2.60687412       7.68369787       24       0.29920825      -0.60561061       0.32832938
H        8.44508983       7.27257217       2.28907024       25      -0.02231527      -0.36830607       0.09657783
H        9.35733348       0.65591549       8.65859127       26       0.64129329      -0.30911595      -0.34431016
H        9.65881731       9.25489155       1.28197769       27       0.56648004      -0.39151534      -0.19027874
H       14.46356801       9.41883352       8.35174879       28       1.51875663      -2.24916005       1.28341854
H        4.57228692       0.48371054       1.54787403       29       0.14076011      -0.68470746       0.32050973
H       14.26435067       9.76303132       5.91160052       30       0.05298748      -0.15187849      -0.25674185
H        4.80989644       0.10226592       4.09108896       31      -0.41528904       0.03648470       0.11622469
H       12.92615707       8.88158021       6.63454185       32      -0.61838275      -1.17212462       0.08144136
H        6.15820143       0.97753749       3.29163685       33      -0.61415577      -0.59045684       0.05320089
H        9.91751079       1.92089023       4.43296292       34      -0.04890969       0.08739026      -0.00323129
H        9.17383576       7.89828762       5.51246104       35      -1.26650620      -0.01927096       0.55987716
H        5.95213753       2.50980410       5.84167425       36       1.02612460      -0.43674558      -0.18983260
H       13.07379836       7.39763543       4.13184080       37       0.35316908      -0.09400186      -0.00628673
C        3.57016545       5.21710910       2.04289892       38      -0.21966425       0.84450108      -0.55098397
C       15.49321282       4.65063672       7.90632792       39       0.06405175      -1.72347975       1.12040615
C       12.78716336       4.71286655       2.38505970       40       0.79790282      -0.63410097       0.58467460
C        6.26391126       5.11340319       7.54261276       41      -0.60372972       0.27372766       0.20056584
C       11.63428792       5.27417330       1.86153271       42       0.49469811       0.74789977      -0.19306964
C        7.41592525       4.56195310       8.08783089       43       0.15857619       0.08552098      -0.23022152
C       11.73908886       6.33376766       0.91660883       44      -2.43453264      -0.18559341       0.03288841
C        7.31622304       3.53503618       9.02569232       45       0.88321584      -0.12692118      -0.00170874
C       12.93053656       6.83880864       0.49998947       46       2.36084557      -0.81144363       0.96112692
C        6.08649777       3.04197355       9.42999646       47       0.21122681      -0.43511075       0.31682310
C        3.63046129       6.26844856       1.12607077       48      -0.82501495       0.91733640      -1.05571735
C       15.43565075       3.57132315       8.83799123       49      -1.26086128       0.43170387      -0.01532644
C        4.85863750       4.67627865       2.59584085       50      -0.14444286      -0.54499781      -0.32663551
C       14.22111369       5.20279279       7.38119169       51      -0.24236897       1.29072225      -0.87276870
C       10.30715840       4.81571715       2.30897581       52      -0.77855748      -0.23896699      -0.67509562
C        8.74683862       5.06940476       7.66820581       53       1.10034251      -0.38646057       0.23965949
C       17.92030993       7.95557138       9.40911373       54      -1.09503818       1.92061496       1.86072862
C        1.15081264       1.91131373       0.54639014       55      -1.15092862      -0.23697402      -1.46939588
C        8.04602034       1.40210068       1.01055494       56       0.42598861       0.02672853       1.26429617
C       11.00264828       8.49493210       8.91989997       57       1.51565409       0.14233477       2.32443190
C        6.73270091       2.81778920       0.15465968       58      -1.22546339       2.09052515       0.83949971
C       12.31880927       7.05231402       9.74966182       59       2.01180649      -0.65495449       2.77014685
C       11.13830203       1.66677415       7.96973407       60       0.50768507       0.19978409      -0.89669764
C        7.89387188       8.17070500       2.03076812       61       1.37215877       0.86448812      -1.12472069
C       10.24217816       0.43016529       7.99640900       62      -2.60076666       2.22349095      -1.22047997
C        8.84033707       9.39977933       1.97408579       63      -1.43325090       0.76782757       0.23565859
C        9.68882744       0.01906925       6.58294733       64       1.33676457       1.77597308       0.96149302
C        9.31911693       9.80141116       3.35941891       65       1.82277083       0.56832588      -0.15835547
C        8.99880258       1.85239390       4.99948097       66      -1.14189267      -0.02424640       0.23273847
C       10.04824169       8.00760755       4.94962898       67       2.77370024      -0.61795723      -0.24920067
C        6.99739380       2.11609967       5.72704947       68      -1.11750317       0.11064081       0.56476480
C       12.07008303       7.77893335       4.21052557       69      -0.09644842      -1.75576830       2.08196902
N        7.42949449       2.58195204       1.29127271       70      -0.07866398       0.18241951      -0.46572512
N       11.64222448       7.31782769       8.68270439       71      -1.49886751      -0.01644854      -2.24102879
N       12.61003709       0.96983044       9.79560497       72       0.62130344      -1.52324247      -0.47818115
N        6.49099248       8.93805763       0.18162087       73      -0.87202448       0.11788234      -1.03861725
N       11.76590976       1.85621637       9.28245993       74      -1.04372454       0.66515708      -1.72510743
N        7.32802952       8.01506453       0.70304799       75      -0.40570948      -0.97137195      -1.02682328
N        8.77893386       1.00678140       6.04505365       76      -0.06660959       0.27869871      -0.95149189
N       10.29861676       8.85956136       3.94472618       77      -1.18170750       0.71978784      -0.20239882
N        7.51015893       1.16964117       6.52550074       78      -0.49108091       0.23779289       0.07431081
N       11.57585322       8.70571494       3.46791849       79      -0.53710127       1.26895881      -1.32298279
N        7.84658773       2.55626431       4.76965061       80       1.28534591      -0.29865515      -0.06126127
N       11.18971548       7.29702840       5.19144306       81      -0.24928339       0.65709531      -0.88279790
O        5.94195034       5.25387500       2.18736901       82      -0.35771415       0.09014571       0.19664416
O       13.13305697       4.61182442       7.75326103       83       0.21227509       0.10837740      -0.16586831
O        4.81912683       3.65353257       3.33472778       84       0.09818006       0.10306960       0.26708198
O       14.26665311       6.23529483       6.61584880       85      -0.18595964      -0.91708946       0.58218706
O       10.17408445       3.92512870       3.19487341       86       0.67731011      -1.04053044       1.23699939
O        8.87912929       5.94321298       6.75085294       87      -0.84624726       0.70458937      -0.66356283
O        9.26733563       5.25172983       1.75026789       88      -0.62513423       0.88335884      -0.89702433
O        9.80290119       4.61447370       8.20949231       89      -0.14693600      -0.27332574       0.61446607
O        7.54791696       6.00393379       4.48548527       90      -0.57665014      -0.05685135       1.49001455
O       11.51818148       3.89126042       5.41657012       91       1.74056971      -0.13252799       1.67084241
92
Lattice="10.48346918 0.0 0.0 3.714875750883029 9.804154364072927 0.0 4.855909800364214 0.06339032821495949 9.954249402052733" Properties=species:S:1:pos:R:3:spacegroup_kinds:I:1:forces:R:3 spacegroup="P 1" unit_cell=conventional occupancy="_JSON {\"0\": {\"Cd\": 1}, \"1\": {\"Cd\": 1}, \"2\": {\"H\": 1}, \"3\": {\"H\": 1}, \"4\": {\"H\": 1}, \"5\": {\"H\": 1}, \"6\": {\"H\": 1}, \"7\": {\"H\": 1}, \"8\": {\"H\": 1}, \"9\": {\"H\": 1}, \"10\": {\"H\": 1}, \"11\": {\"H\": 1}, \"12\": {\"H\": 1}, \"13\": {\"H\": 1}, \"14\": {\"H\": 1}, \"15\": {\"H\": 1}, \"16\": {\"H\": 1}, \"17\": {\"H\": 1}, \"18\": {\"H\": 1}, \"19\": {\"H\": 1}, \"20\": {\"H\": 1}, \"21\": {\"H\": 1}, \"22\": {\"H\": 1}, \"23\": {\"H\": 1}, \"24\": {\"H\": 1}, \"25\": {\"H\": 1}, \"26\": {\"H\": 1}, \"27\": {\"H\": 1}, \"28\": {\"H\": 1}, \"29\": {\"H\": 1}, \"30\": {\"H\": 1}, \"31\": {\"H\": 1}, \"32\": {\"H\": 1}, \"33\": {\"H\": 1}, \"34\": {\"H\": 1}, \"35\": {\"H\": 1}, \"36\": {\"H\": 1}, \"37\": {\"H\": 1}, \"38\": {\"C\": 1}, \"39\": {\"C\": 1}, \"40\": {\"C\": 1}, \"41\": {\"C\": 1}, \"42\": {\"C\": 1}, \"43\": {\"C\": 1}, \"44\": {\"C\": 1}, \"45\": {\"C\": 1}, \"46\": {\"C\": 1}, \"47\": {\"C\": 1}, \"48\": {\"C\": 1}, \"49\": {\"C\": 1}, \"50\": {\"C\": 1}, \"51\": {\"C\": 1}, \"52\": {\"C\": 1}, \"53\": {\"C\": 1}, \"54\": {\"C\": 1}, \"55\": {\"C\": 1}, \"56\": {\"C\": 1}, \"57\": {\"C\": 1}, \"58\": {\"C\": 1}, \"59\": {\"C\": 1}, \"60\": {\"C\": 1}, \"61\": {\"C\": 1}, \"62\": {\"C\": 1}, \"63\": {\"C\": 1}, \"64\": {\"C\": 1}, \"65\": {\"C\": 1}, \"66\": {\"C\": 1}, \"67\": {\"C\": 1}, \"68\": {\"C\": 1}, \"69\": {\"C\": 1}, \"70\": {\"N\": 1}, \"71\": {\"N\": 1}, \"72\": {\"N\": 1}, \"73\": {\"N\": 1}, \"74\": {\"N\": 1}, \"75\": {\"N\": 1}, \"76\": {\"N\": 1}, \"77\": {\"N\": 1}, \"78\": {\"N\": 1}, \"79\": {\"N\": 1}, \"80\": {\"N\": 1}, \"81\": {\"N\": 1}, \"82\": {\"O\": 1}, \"83\": {\"O\": 1}, \"84\": {\"O\": 1}, \"85\": {\"O\": 1}, \"86\": {\"O\": 1}, \"87\": {\"O\": 1}, \"88\": {\"O\": 1}, \"89\": {\"O\": 1}, \"90\": {\"O\": 1}, \"91\": {\"O\": 1}}" energy=-594.9312744140625 free_energy=-594.9312744140625 stress="-0.008433578535914421 0.0017190916696563363 0.003913462162017822 0.0017190916696563363 -0.005082885269075632 0.001172265619970858 0.003913462162017822 0.001172265619970858 -0.007389347534626722" pbc="T T T"
Cd       7.61682057       4.09535967       3.06601171        0       0.69633448      -0.05378146       0.00378737
Cd      11.39854587       5.78472502       6.89369554        1      -0.06851566       0.08306583       0.13549006
H        7.97375796       5.92906584       5.46313064        2      -0.49616227       0.27132294      -1.79442954
H       11.11471924       3.95285422       4.55766265        3      -0.36125770       0.02063891      -1.00233519
H        6.54726653       6.12422908       4.65395777        4       1.02766383      -0.04200836      -0.32779661
H       12.50787231       3.79635820       5.34615983        5      -0.41837698      -0.04981239      -0.15591852
H       12.77375928       3.82992597       3.06625657        6      -0.31800389       0.71983993      -0.57687175
H        6.27570330       5.99136877       6.89788179        7       0.19214991       0.29888284      -0.28802189
H       10.74799170       6.73850757       0.48223072        8       1.64426148      -0.56489778       0.68896270
H        8.25777193       3.08907441       9.40007556        9       0.13506185       0.00415784       0.31915885
H        4.61054253       6.65582997       0.83723326       10       0.14090139      -0.02362327      -0.05112699
H       14.45106084       3.19000076       9.19117005       11       0.97495747       0.29837567      -0.53935510
H       18.53751795       8.84026708       9.74526740       12      -0.35397381      -0.51493728      -0.03724560
H        0.52912380       1.10181198       0.14894999       13       0.24590336      -0.15632823       0.03320081
H       16.93245839       8.35198700       9.15725570       14       0.17055665       0.19493514      -0.24900010
H        2.13511864       1.48181327       0.78576531       15       0.33726513      -0.15742855       0.16413990
H        7.88802414       7.59607137       8.56599696       16       1.65248775      -1.46931195      -3.33208966
H       11.14033975       2.27931948       1.38105256       17      -0.25143412       0.48691016       1.04533124
H        8.65422211       0.85527867       1.71679059       18       0.14680803      -0.10476103      -0.07438385
H       10.37203857       8.97830866       8.25418446       19      -1.33215511       1.18734169      -1.62128294
H       10.93929359       3.80474081       9.89550129       20       1.06324089      -1.85522962       0.28023785
H        8.07638885       6.10203100      -0.01302414       21       0.47349289      -0.69870424       0.08549200
H       11.97886939       1.51417734       7.22930080       22      -0.14464149       0.30517942       0.03860376
H        7.06426649       8.31243818       2.67515655       23      -0.52597469       0.14318296       1.01918006
H       10.59079106       2.62492027       7.68064840       24       0.53522134      -0.84677792       0.23860803
H        8.45839000       7.24642605       2.27602612       25      -0.56706429       0.57982087      -0.16216789
H        9.38455093       0.68497155       8.63460640       26       0.39971298      -0.37863809       0.00528876
H        9.66105103       9.23939923       1.25938127       27       0.42800137      -0.23728868       0.19007242
H       14.43515238       9.42309736       8.34514117       28       2.64373398      -3.98144341       2.08343220
H        4.56090354       0.48329930       1.52424160       29       0.62822080      -0.97287214       0.71810377
H       14.25570295       9.76526552       5.93529405       30       0.15945813      -0.01121236      -0.38858512
H        4.78764932       0.10929169       4.07612406       31       0.00924200      -0.14186245      -0.03792450
H       12.94483622       8.88669682       6.63422027       32      -0.45959914      -0.88822025       0.18988115
H        6.12941445       0.96144969       3.31841767       33       0.05422197       0.41288829      -0.04250986
H        9.92854127       1.94285984       4.42943747       34      -0.13998112      -0.09998336       0.24594209
H        9.17634760       7.90520525       5.48825900       35      -3.40342665      -0.28947914       1.95178974
H        5.97812061       2.53376676       5.81465617       36       0.63853496      -0.43626755      -0.08787222
H       13.05143323       7.37225048       4.10412820       37       0.54396999      -0.06052539      -0.00210221
C        3.55030727       5.20956748       2.04801945       38       0.71444464       0.94113046      -0.87066752
C       15.52281210       4.64172976       7.88950525       39      -2.20652604      -2.45285177       1.67798853
C       12.77268265       4.70509779       2.36399881       40       0.17205472      -0.83206397       0.95452380
C        6.24757176       5.13548236       7.55395374       41       1.53400993       0.40319401      -0.38993120
C       11.60486082       5.29366174       1.85140918       42       2.23497343      -0.12842438       0.36746722
C        7.41511656       4.54443533       8.06544717       43       0.08538836       0.11194653       0.69489098
C       11.75115300       6.33780403       0.92534526       44      -4.28862572       0.27143452      -0.62512374
C        7.32538014       3.51613987       9.04880308       45       1.54494119       1.31087983      -1.94847667
C       12.91828603       6.83714557       0.49367931       46       4.09025335      -0.30345920       0.54610413
C        6.11303570       3.02726833       9.40912165       47      -0.57817400      -0.89577633       1.10392034
C        3.63953326       6.25135887       1.11287033       48      -1.73197198       0.86235285      -0.69548035
C       15.46025962       3.54157439       8.82242859       49      -1.58238220       0.94250071      -0.30347446
C        4.86455036       4.66921488       2.60783527       50      -0.61101180      -0.64506304      -0.17050953
C       14.20505948       5.17510636       7.38108502       51       3.03033447       3.68883371      -1.95382595
C       10.31381367       4.81203275       2.30621144       52      -1.02580190       1.06692898      -1.72498775
C        8.75164504       5.07181112       7.68523349       53       1.17926383      -0.03918490      -0.89525568
C       17.93539804       7.97057670       9.38613051       54      -1.94374681       1.59990549       3.79599476
C        1.17679251       1.91003220       0.52777420       55      -0.72520906      -0.49148569      -1.29556441
C        8.06985109       1.39956640       0.98217362       56       0.39384958       0.44070601       2.46971226
C       11.00154979       8.49069781       8.89751156       57       2.65013766      -0.28291017       3.98889828
C        6.71704498       2.79040066       0.15070618       58      -1.05436432       4.29017973       2.39508057
C       12.33791201       7.02271204       9.74352490       59       0.45642388       1.88960218       2.33896637
C       11.15393223       1.68579196       7.94657169       60      -0.14711440      -0.39080355      -0.14871290
C        7.89064464       8.17773566       2.00860098       61       2.24349284       0.12876797       0.61866045
C       10.26000922       0.41306602       7.99732350       62      -3.46457577       5.07775211      -1.93334162
C        8.86798104       9.40969043       1.99246972       63      -2.37269020       0.63616788      -1.24296427
C        9.68884678       0.04752037       6.61056044       64       1.34349537       0.11536980       0.63852030
C        9.33210387       9.80844665       3.36312641       65       0.94509614      -0.32844102       0.16320007
C        9.02065930       1.82979052       5.01742752       66      -1.79817605       0.69679427      -0.05424599
C       10.01926626       8.00086594       4.97252235       67       7.04479980      -0.07912994      -2.92741871
C        7.00190905       2.11753636       5.70704800       68      -1.16102195       0.10560733       0.97156775
C       12.06624200       7.78187126       4.21135034       69      -0.08367145      -2.16759753       2.17710257
N        7.45237185       2.59113144       1.31348266       70      -0.59876758      -0.76808214      -2.15623784
N       11.66668790       7.33758194       8.66885793       71      -0.98244786      -0.83894408      -1.65806019
N       12.60085401       0.98782264       9.77080992       72       1.56230819      -2.30665660      -0.16539174
N        6.49366100       8.91319148       0.19589780       73      -1.50324965       0.67295629      -1.61782312
N       11.77857073       1.87312103       9.27620865       74      -1.59995317       0.32514951      -2.81148410
N        7.31899175       8.02047313       0.72797883       75      -0.27581164      -2.36724520      -3.16824651
N        8.77002608       0.97980563       6.05926807       76      -0.06327125       1.43249488      -1.64993596
N       10.31132016       8.85369698       3.92381616       77      -2.35143733      -0.01411883       1.47618270
N        7.50613155       1.17706569       6.50609606       78      -0.86178982      -0.44324851       0.86555201
N       11.56206748       8.68979572       3.44965522       79      -0.29253131       1.18358207      -1.15590572
N        7.85425624       2.56321845       4.79120645       80       2.55891800      -0.45702216      -0.89671642
N       11.21481262       7.28274145       5.20880203       81      -1.75816810       1.79529715      -1.38010001
O        5.94842858       5.25109353       2.20472356       82      -0.70963526       0.03469515       0.14525977
O       13.16131536       4.62159803       7.72580075       83      -2.38651991      -1.58469045       0.81034327
O        4.81848241       3.64759249       3.35940398       84       0.17902490       0.43299806      -0.02424017
O       14.27636792       6.26231496       6.64126448       85      -0.31880242      -1.67449164       0.90873432
O       10.18155240       3.94151372       3.16551408       86       0.73948085      -2.69369578       2.91243768
O        8.90287197       5.96684957       6.75100849       87      -1.05866194      -0.12829861       0.27435121
O        9.27861614       5.26192978       1.75986653       88      -1.36763620       1.11777699      -1.24422634
O        9.80979028       4.58777878       8.19998705       89      -0.37107912      -0.00742257       0.58853096
O        7.52784934       6.02889028       4.47037206       90      -0.46424067      -0.17676969       2.38928103
O       11.53319324       3.89400736       5.43912093       91       0.93553936      -0.04827634       1.16939712
92
Lattice="10.48346918 0.0 0.0 3.714875750883029 9.804154364072927 0.0 4.855909800364214 0.06339032821495949 9.954249402052733" Properties=species:S:1:pos:R:3:spacegroup_kinds:I:1:forces:R:3 spacegroup="P 1" unit_cell=conventional occupancy="_JSON {\"0\": {\"Cd\": 1}, \"1\": {\"Cd\": 1}, \"2\": {\"H\": 1}, \"3\": {\"H\": 1}, \"4\": {\"H\": 1}, \"5\": {\"H\": 1}, \"6\": {\"H\": 1}, \"7\": {\"H\": 1}, \"8\": {\"H\": 1}, \"9\": {\"H\": 1}, \"10\": {\"H\": 1}, \"11\": {\"H\": 1}, \"12\": {\"H\": 1}, \"13\": {\"H\": 1}, \"14\": {\"H\": 1}, \"15\": {\"H\": 1}, \"16\": {\"H\": 1}, \"17\": {\"H\": 1}, \"18\": {\"H\": 1}, \"19\": {\"H\": 1}, \"20\": {\"H\": 1}, \"21\": {\"H\": 1}, \"22\": {\"H\": 1}, \"23\": {\"H\": 1}, \"24\": {\"H\": 1}, \"25\": {\"H\": 1}, \"26\": {\"H\": 1}, \"27\": {\"H\": 1}, \"28\": {\"H\": 1}, \"29\": {\"H\": 1}, \"30\": {\"H\": 1}, \"31\": {\"H\": 1}, \"32\": {\"H\": 1}, \"33\": {\"H\": 1}, \"34\": {\"H\": 1}, \"35\": {\"H\": 1}, \"36\": {\"H\": 1}, \"37\": {\"H\": 1}, \"38\": {\"C\": 1}, \"39\": {\"C\": 1}, \"40\": {\"C\": 1}, \"41\": {\"C\": 1}, \"42\": {\"C\": 1}, \"43\": {\"C\": 1}, \"44\": {\"C\": 1}, \"45\": {\"C\": 1}, \"46\": {\"C\": 1}, \"47\": {\"C\": 1}, \"48\": {\"C\": 1}, \"49\": {\"C\": 1}, \"50\": {\"C\": 1}, \"51\": {\"C\": 1}, \"52\": {\"C\": 1}, \"53\": {\"C\": 1}, \"54\": {\"C\": 1}, \"55\": {\"C\": 1}, \"56\": {\"C\": 1}, \"57\": {\"C\": 1}, \"58\": {\"C\": 1}, \"59\": {\"C\": 1}, \"60\": {\"C\": 1}, \"61\": {\"C\": 1}, \"62\": {\"C\": 1}, \"63\": {\"C\": 1}, \"64\": {\"C\": 1}, \"65\": {\"C\": 1}, \"66\": {\"C\": 1}, \"67\": {\"C\": 1}, \"68\": {\"C\": 1}, \"69\": {\"C\": 1}, \"70\": {\"N\": 1}, \"71\": {\"N\": 1}, \"72\": {\"N\": 1}, \"73\": {\"N\": 1}, \"74\": {\"N\": 1}, \"75\": {\"N\": 1}, \"76\": {\"N\": 1}, \"77\": {\"N\": 1}, \"78\": {\"N\": 1}, \"79\": {\"N\": 1}, \"80\": {\"N\": 1}, \"81\": {\"N\": 1}, \"82\": {\"O\": 1}, \"83\": {\"O\": 1}, \"84\": {\"O\": 1}, \"85\": {\"O\": 1}, \"86\": {\"O\": 1}, \"87\": {\"O\": 1}, \"88\": {\"O\": 1}, \"89\": {\"O\": 1}, \"90\": {\"O\": 1}, \"91\": {\"O\": 1}}" energy=-593.5298461914062 free_energy=-593.5298461914062 stress="-0.01322334073483944 0.002498104702681303 0.005263791419565678 0.002498104702681303 -0.0031705128494650126 0.00344738713465631 0.005263791419565678 0.00344738713465631 -0.011783858761191368" pbc="T T T"
Cd       7.63325070       4.08818954       3.08106861        0       0.33156976       0.09942579      -0.02188840
Cd      11.37161694       5.79390590       6.88839688        1       0.15352157       0.06380918       0.26375425
H        7.99525203       5.92736783       5.47723883        2      -0.69027936       0.19168510      -1.77575636
H       11.11342221       3.94141071       4.58305275        3      -1.20370066       0.17094530      -3.25285292
H        6.57509949       6.12003119       4.64214843        4       0.26614916       0.01369523      -0.06954492
H       12.48057229       3.80747830       5.36512941        5       0.43709415      -0.15420786      -0.36771798
H       12.78884103       3.80525663       3.04306276        6      -0.33188182       0.78095239      -0.60243124
H        6.26308492       6.02123436       6.88638608        7       0.35294336       0.15988700      -0.16744025
H       10.77681925       6.71270777       0.47897949        8       0.56390667      -0.01869158       0.37582719
H        8.26003768       3.10575080       9.40939393        9      -0.25604248      -0.11581373       0.32527065
H        4.61150805       6.62836100       0.82075427       10       0.92185473       0.24689001      -0.20000213
H       14.42732853       3.16446010       9.17645699       11       1.78295469       0.60611051      -0.56566471
H       18.56170136       8.83360957       9.77350714       12      -0.85844946      -1.10964775      -0.34997228
H        0.51515098       1.11619810       0.14543381       13       0.08477204      -0.34551880      -0.06448640
H       16.94245258       8.33283883       9.14036078       14       0.06413481       0.32864746      -0.08269881
H        2.12166860       1.45286301       0.76103876       15       0.93775070      -0.31959721       0.26044321
H        7.86015735       7.62411395       8.58062509       16       2.81491971      -2.27615452      -5.37957478