90
Lattice="16.00085033 0.0 0.0 0.013720572046830653 17.064220073953383 0.0 0.5164437130923323 0.016204467282901057 17.83681363203255" Properties=species:S:1:pos:R:3:spacegroup_kinds:I:1:forces:R:3 spacegroup="P 1" unit_cell=conventional occupancy="_JSON {\"0\": {\"Zn\": 1}, \"1\": {\"Zn\": 1}, \"2\": {\"H\": 1}, \"3\": {\"H\": 1}, \"4\": {\"H\": 1}, \"5\": {\"H\": 1}, \"6\": {\"H\": 1}, \"7\": {\"H\": 1}, \"8\": {\"H\": 1}, \"9\": {\"H\": 1}, \"10\": {\"H\": 1}, \"11\": {\"H\": 1}, \"12\": {\"H\": 1}, \"13\": {\"H\": 1}, \"14\": {\"H\": 1}, \"15\": {\"H\": 1}, \"16\": {\"H\": 1}, \"17\": {\"H\": 1}, \"18\": {\"H\": 1}, \"19\": {\"H\": 1}, \"20\": {\"H\": 1}, \"21\": {\"H\": 1}, \"22\": {\"H\": 1}, \"23\": {\"H\": 1}, \"24\": {\"H\": 1}, \"25\": {\"H\": 1}, \"26\": {\"C\": 1}, \"27\": {\"C\": 1}, \"28\": {\"C\": 1}, \"29\": {\"C\": 1}, \"30\": {\"C\": 1}, \"31\": {\"C\": 1}, \"32\": {\"C\": 1}, \"33\": {\"C\": 1}, \"34\": {\"C\": 1}, \"35\": {\"C\": 1}, \"36\": {\"C\": 1}, \"37\": {\"C\": 1}, \"38\": {\"C\": 1}, \"39\": {\"C\": 1}, \"40\": {\"C\": 1}, \"41\": {\"C\": 1}, \"42\": {\"C\": 1}, \"43\": {\"C\": 1}, \"44\": {\"C\": 1}, \"45\": {\"C\": 1}, \"46\": {\"C\": 1}, \"47\": {\"C\": 1}, \"48\": {\"C\": 1}, \"49\": {\"C\": 1}, \"50\": {\"C\": 1}, \"51\": {\"C\": 1}, \"52\": {\"C\": 1}, \"53\": {\"C\": 1}, \"54\": {\"C\": 1}, \"55\": {\"C\": 1}, \"56\": {\"C\": 1}, \"57\": {\"C\": 1}, \"58\": {\"C\": 1}, \"59\": {\"C\": 1}, \"60\": {\"C\": 1}, \"61\": {\"C\": 1}, \"62\": {\"C\": 1}, \"63\": {\"C\": 1}, \"64\": {\"C\": 1}, \"65\": {\"C\": 1}, \"66\": {\"C\": 1}, \"67\": {\"C\": 1}, \"68\": {\"C\": 1}, \"69\": {\"C\": 1}, \"70\": {\"I\": 1}, \"71\": {\"I\": 1}, \"72\": {\"I\": 1}, \"73\": {\"I\": 1}, \"74\": {\"I\": 1}, \"75\": {\"I\": 1}, \"76\": {\"I\": 1}, \"77\": {\"I\": 1}, \"78\": {\"N\": 1}, \"79\": {\"N\": 1}, \"80\": {\"O\": 1}, \"81\": {\"O\": 1}, \"82\": {\"O\": 1}, \"83\": {\"O\": 1}, \"84\": {\"O\": 1}, \"85\": {\"O\": 1}, \"86\": {\"O\": 1}, \"87\": {\"O\": 1}, \"88\": {\"O\": 1}, \"89\": {\"O\": 1}}" energy=-577.2520751953125 free_energy=-577.2520751953125 stress="-0.00018322172400075942 -3.280436430941336e-05 0.0003604217490646988 -3.280436430941336e-05 -0.0011837311321869493 -0.00025217534857802093 0.0003604217490646988 -0.00025217534857802093 -0.0016880001639947295" pbc="T T T"
Zn       8.22839062      10.06392625       8.93730338        0       0.62092173      -0.15367809      -0.38673502
Zn       8.23957454       7.07012100       8.94339032        1       0.54153657      -0.02491745      -0.38143516
H        1.40873849       9.85141291       7.35446436        2       0.06864163      -0.00272416      -0.31353158
H        1.46797092       7.26402177       7.31397227        3       0.10066634      -0.08658163      -0.23367107
H       15.11451199       9.84375100       7.34487198        4      -0.10363355      -0.27791169      -0.36573279
H       15.15538873       7.46148280       7.18130682        5       0.14576244       0.14260964      -0.14015177
H        1.37285922       6.41695641       8.85749358        6       0.13632326      -0.38617209       0.07214770
H        1.41887040      10.68026058       8.89482408        7       0.11144730       0.08949420       0.13376005
H       15.05550375       9.22638294      11.08660533        8      -0.07461295       0.30079132       0.20711203
H       15.09801066       7.48908062      10.93937281        9      -0.13680023      -0.99481314       0.39822447
H        8.75887044      10.69766087      15.65096366       10      -0.06911595      -0.43816954      -0.18607157
H        8.79151407       6.41236844      15.65527960       11       0.02641115      -0.93041968       0.44010866
H        8.54126134      10.69322481      13.13912683       12       0.01142097      -0.77411246       0.57158065
H        8.54125683       6.41439373      13.14598866       13      -0.07068418       0.29689687       0.13331562
H        8.22702275      10.66622973       4.71398679       14      -0.02259661       0.17988946      -0.00757425
H        8.25290702       6.42177681       4.71609522       15      -0.03570586      -0.13219453       0.15555836
H        9.78706078      14.86028205       7.43570168       16      -0.19892611      -0.14418325       0.15427163
H        9.79842965       2.25659288       7.43287819       17       0.02810535       0.00914603      -0.11205927
H        6.72812949      14.82667781      10.45670939       18       0.25963435      -0.15851176      -0.16499162
H        6.72198702       2.26392923      10.46051325       19      -0.37300628      -0.43228483       0.41803700
H        2.07117640       9.07221819      13.03169801       20      -0.46017674       0.23517373      -0.16761948
H       16.37712697       9.66701370      12.87520517       21      -1.85464621      -0.37097907       0.50298870
H        1.70509174      10.82101628      12.79574011       22      -0.34487158      -0.65052074      -0.13343269
H       16.28822322       5.89522393      11.64900682       23      -0.29019496      -0.31583744      -0.24728192
H        0.42732732       7.22888901      12.83478671       24      -0.06699514      -0.24072230       0.00051472
H        1.72104361       6.05482439      12.67070461       25       0.86618996      -0.67828310       0.54556537
C        8.22410364       8.56587503       6.31673083       26       0.62568140      -0.00565190       0.38838649
C       10.83074269       8.56486716       8.96620062       27       1.60829890       0.07241652       0.19972384
C        8.36493586       8.56089061      11.52389184       28       0.75334394       0.87328130      -0.91817057
C        5.66336811       8.54974305       8.86553332       29       1.26041138      -0.37121102      -0.27855378
C       15.49866140       9.77614757       8.36340335       30       0.28346366       0.69953024       0.37175333
C       15.50746026       7.32416454       8.21388132       31       0.06093298       0.09055259       0.10731027
C        1.02680259       7.29021323       8.31177209       32      -0.47327834      -0.56094879      -0.34881172
C        1.01952555       9.81076352       8.37215414       33      -0.18753737      -0.29441237       0.17666836
C        4.21839563       8.56194617       8.90402111       34      -0.66696507      -0.21761878       0.33700475
C       14.95887471       8.50848645       9.07259983       35      -0.11298641       0.09629732      -0.75814235
C        1.55115217       8.49914629       9.06479900       36       0.29458332       1.40102839       0.52000690
C        1.02297477       8.48247849      10.53658749       37      -0.34477997      -0.20644355       0.52074504
C       15.46442059       8.39443266      10.51411345       38       1.31311011       1.08209240       0.02941029
C        3.00245437       8.52842760       9.04582651       39       1.19833755      -0.06047627      -0.36210763
C       13.51300955       8.55125324       9.06798854       40      -3.28453493      -0.16726872      -0.17275947
C       12.26772041       8.56295475       9.01097482       41       3.66909337      -0.07048444       0.16692552
C        8.70859686       9.73999653      15.10360679       42       0.11558441       1.37242401      -0.18561614
C        8.73374747       7.31449174      15.10222447       43      -0.16889654       1.31065536      -1.02641237
C        8.58940047       9.73324616      13.71951195       44       0.09522292       2.51503801      -0.03649271
C        8.57917197       7.35077200      13.72148013       45       0.33497488      -0.76134551      -0.12339011
C        8.53795433       8.57143980      13.01903997       46      -0.53315842      -1.60851765      -0.89770967
C        8.79063436       8.54847264      15.79332244       47      -0.07689930      -1.10687411       1.40573764
C        8.85528399       8.52030084      17.22191062       48      -0.00053505       0.24697611      -1.80452430
C        8.35019743       8.52997949       0.58967711       49       0.21506825      -0.07827657       2.02234507
C        8.32778341       9.72043314       2.76327141       50      -0.08226494       0.69739681      -0.25700232
C        8.31133374       7.31387197       2.76641313       51       0.10596035       0.38872981       0.01661716
C        8.24291728       9.73891333       4.15248921       52       0.40435246       1.20356917      -1.06928492
C        8.25337107       7.34590343       4.15267438       53       0.30890292      -0.40239033      -0.40390342
C        8.27284205       8.56269627       4.82914891       54      -0.66857564      -1.08992720       0.75667250
C        8.36603951       8.52283543       2.01420042       55      -0.32521689       0.04217141      -0.46720260
C        9.10042858      14.34160573       8.11286704       56       1.10221958      -0.03437886      -1.06554604
C        9.10711019       2.76957546       8.09120571       57      -0.48534518      -0.49696663       0.50304943
C        9.06931588      12.95971393       8.13450630       58       0.41710931      -0.71660239      -0.30544138
C        9.06989877       4.16891066       8.12853820       59       0.39513287      -1.11859310      -0.25746882
C        7.40894262      12.93012739       9.73843972       60       1.41792202      -1.14619398      -0.79852319
C        7.40227572       4.17985800       9.75261714       61       1.50831079      -1.34806061      -0.87740886
C        7.43035780      14.30425818       9.79387799       62      -1.10640478       0.19629222       0.68930435
C        7.41440808       2.73148420       9.79554824       63      -0.56884080       2.66739798       0.11718196
C        8.27173429      15.02306511       8.95461244       64      -0.49309164       1.16752911       0.33060074
C        8.24443988       2.01673883       8.95189814       65       0.91027296       1.67456198      -0.82106823
C        8.23266055      16.43343073       8.94431456       66       0.16581818       4.33732462       0.16129896
C        8.23153745       0.63857451       8.95814843       67       0.06621983      -5.47406769      -0.17046708
C        1.35962258       9.77908004      12.52927976       68       2.73838806       1.13986313       0.70862794
C        0.97786606       6.58277435      12.12538280       69      -1.07598364       1.10273027       0.30733564
I       10.43230590      12.06287119       6.81123299       70       0.22855020      -0.11858607      -0.21919021
I       10.42204529       5.06857510       6.81413725       71       0.27110869       0.19931395      -0.25611883
I        6.05981483      12.02732228      11.06163708       72      -0.01582982      -0.19624382      -0.02515208
I        6.05991273       5.10487930      11.07164114       73       0.10400491       0.01812594      -0.12475527
I       14.63646111       5.45607509       8.74158881       74      -0.20780802      -0.63081968       0.16308451
I       14.69465623      11.60484167       9.20291280       75      -0.09837020       0.24534860       0.12004753
I        8.38145058      11.60147695       1.76629724       76      -0.01579916      -0.32120523       0.10495108
I        8.39131288       5.50128051       1.77017897       77      -0.03033886      -0.36948544      -0.13223936
N        8.29352323      12.19377965       8.90519051       78      -1.76291013       1.04955375       1.35743332
N        8.28640675       4.87886783       8.92673904       79      -1.96792674       0.28908679       1.52265203
O        8.26063506       9.69717808       6.89931639       80      -0.24742271      -0.03396985       0.01574820
O        8.25454775       7.42517886       6.86940001       81      -0.22548893      -0.14008901       0.47220713
O       10.31590702       9.70664718       8.96250105       82      -1.38408101       1.01835120      -0.08257475
O       10.31349729       7.42264900       8.95826889       83      -1.43183994      -1.06750035      -0.05590671
O        8.35350860       9.70493095      10.90551470       84      -0.27168378      -1.07485092       1.23529625
O        8.35630830       7.42938597      10.94145866       85      -0.30061886       0.12829810       0.39511845
O        6.27032536       9.68483070       8.84707713       86      -0.96788824      -0.57066607       0.12512529
O        6.27451027       7.39904301       8.83324514       87      -1.28089356       1.09265053       0.17561889
O        1.48626547       9.68332523      11.11804767       88      -0.40859851      -1.16169763      -1.17942500
O        1.64197278       7.37618343      11.15003631       89       0.48531961       0.54225326      -0.93551594
90
Lattice="16.00085033 0.0 0.0 0.013720572046830653 17.064220073953383 0.0 0.5164437130923323 0.016204467282901057 17.83681363203255" Properties=species:S:1:pos:R:3:spacegroup_kinds:I:1:forces:R:3 spacegroup="P 1" unit_cell=conventional occupancy="_JSON {\"0\": {\"Zn\": 1}, \"1\": {\"Zn\": 1}, \"2\": {\"H\": 1}, \"3\": {\"H\": 1}, \"4\": {\"H\": 1}, \"5\": {\"H\": 1}, \"6\": {\"H\": 1}, \"7\": {\"H\": 1}, \"8\": {\"H\": 1}, \"9\": {\"H\": 1}, \"10\": {\"H\": 1}, \"11\": {\"H\": 1}, \"12\": {\"H\": 1}, \"13\": {\"H\": 1}, \"14\": {\"H\": 1}, \"15\": {\"H\": 1}, \"16\": {\"H\": 1}, \"17\": {\"H\": 1}, \"18\": {\"H\": 1}, \"19\": {\"H\": 1}, \"20\": {\"H\": 1}, \"21\": {\"H\": 1}, \"22\": {\"H\": 1}, \"23\": {\"H\": 1}, \"24\": {\"H\": 1}, \"25\": {\"H\": 1}, \"26\": {\"C\": 1}, \"27\": {\"C\": 1}, \"28\": {\"C\": 1}, \"29\": {\"C\": 1}, \"30\": {\"C\": 1}, \"31\": {\"C\": 1}, \"32\": {\"C\": 1}, \"33\": {\"C\": 1}, \"34\": {\"C\": 1}, \"35\": {\"C\": 1}, \"36\": {\"C\": 1}, \"37\": {\"C\": 1}, \"38\": {\"C\": 1}, \"39\": {\"C\": 1}, \"40\": {\"C\": 1}, \"41\": {\"C\": 1}, \"42\": {\"C\": 1}, \"43\": {\"C\": 1}, \"44\": {\"C\": 1}, \"45\": {\"C\": 1}, \"46\": {\"C\": 1}, \"47\": {\"C\": 1}, \"48\": {\"C\": 1}, \"49\": {\"C\": 1}, \"50\": {\"C\": 1}, \"51\": {\"C\": 1}, \"52\": {\"C\": 1}, \"53\": {\"C\": 1}, \"54\": {\"C\": 1}, \"55\": {\"C\": 1}, \"56\": {\"C\": 1}, \"57\": {\"C\": 1}, \"58\": {\"C\": 1}, \"59\": {\"C\": 1}, \"60\": {\"C\": 1}, \"61\": {\"C\": 1}, \"62\": {\"C\": 1}, \"63\": {\"C\": 1}, \"64\": {\"C\": 1}, \"65\": {\"C\": 1}, \"66\": {\"C\": 1}, \"67\": {\"C\": 1}, \"68\": {\"C\": 1}, \"69\": {\"C\": 1}, \"70\": {\"I\": 1}, \"71\": {\"I\": 1}, \"72\": {\"I\": 1}, \"73\": {\"I\": 1}, \"74\": {\"I\": 1}, \"75\": {\"I\": 1}, \"76\": {\"I\": 1}, \"77\": {\"I\": 1}, \"78\": {\"N\": 1}, \"79\": {\"N\": 1}, \"80\": {\"O\": 1}, \"81\": {\"O\": 1}, \"82\": {\"O\": 1}, \"83\": {\"O\": 1}, \"84\": {\"O\": 1}, \"85\": {\"O\": 1}, \"86\": {\"O\": 1}, \"87\": {\"O\": 1}, \"88\": {\"O\": 1}, \"89\": {\"O\": 1}}" energy=-574.0984497070312 free_energy=-574.0984497070312 stress="-0.0015268910210579634 0.00038879996282048523 0.0009982638293877244 0.00038879996282048523 -0.004906525835394859 -0.0009392279898747802 0.0009982638293877244 -0.0009392279898747802 -0.003281957935541868" pbc="T T T"
Zn       8.20180961      10.09322937       8.95643241        0       1.10900939      -0.25013185      -0.80311298
Zn       8.21349985       7.09987441       8.97212987        1       1.01667285      -0.08890203      -0.86414862
H        1.38279350       9.86744134       7.35891069        2      -0.15228833      -0.12345056       0.24391331
H        1.43817473       7.29125888       7.33877574        3       0.06195531      -0.13987005      -0.12952171
H       15.13681354       9.82578613       7.37372349        4      -0.39612123      -0.30755666      -0.71646547
H       15.16328984       7.47007980       7.21123879        5      -0.07902821       0.08068705      -0.33106011
H        1.34401413       6.44520580       8.87363670        6       0.44529372      -1.12546611       0.37791425
H        1.39247106      10.66098654       8.86894003        7       0.91480732       1.80026913       1.34767008
H       15.04234733       9.21543924      11.09551803        8      -0.40040427       0.92946780       0.58518457
H       15.07201793       7.51099302      10.96017816        9      -0.30465981      -1.59989214       0.77328181
H        8.73566738      10.67910817      15.66169999       10      -0.07643928      -0.51162332       0.03699090
H        8.81232335       6.44094416      15.68509630       11       0.06930338      -2.08446002       0.84382027
H        8.51231444      10.70766853      13.14474991       12       0.00936880      -0.56333768       0.77443516
H        8.55476317       6.44421589      13.17438888       13      -0.18974543       0.22093204      -0.00815752
H        8.20807009      10.66015078       4.72465646       14      -0.09904237       0.10985931       0.00539215
H        8.28152762       6.45171114       4.74164937       15      -0.12178518      -0.70162225       0.50874472
H        9.75882205      14.85368720       7.43747101       16      -0.32617590      -0.10417872       0.27578521
H        9.81187876       2.28648445       7.45970674       17       0.19503108      -0.01345962      -0.21629769
H        6.75435266      14.83632424      10.46454262       18       0.25938457      -0.23798466      -0.10863584
H        6.74421441       2.25607130      10.48807003       19      -0.63302946      -0.59341109       0.70973486
H        2.08151916       9.10059802      13.04953492       20      -0.44193846      -0.18204497      -0.00735448
H       16.40659107       9.69300238      12.90250479       21      -4.05674458      -0.69145638       1.33162785
H        1.70347894      10.81764003      12.80893307       22      -0.53249496      -1.05932403      -0.29179585
H       16.31570848       5.92315859      11.67732585       23      -1.09391332      -0.97381955      -0.62460351
H        0.45641575       7.23698852      12.86200442       24      -0.76339775       0.36079186       0.63057077
H        1.73983959       6.08384317      12.69540580       25       0.23720455      -0.29143804       0.09286840
C        8.19751164       8.59574021       6.29354871       26       1.79336393      -0.02916167       2.00237894
C       10.80167477       8.59358064       8.93640322       27       3.42659783       0.14857665       0.21167748
C        8.33801619       8.58962564      11.51194356       28       1.79180646       0.67782032      -0.65847141
C        5.64527478       8.57857221       8.89343344       29       2.07547903      -1.12836015      -1.25166035
C       15.48598786       9.75515851       8.39185519       30       0.34635907       0.76064056       0.53999507
C       15.47971078       7.29738986       8.24224988       31       0.44923186       0.93142676       0.15660991
C        0.99825912       7.29858890       8.34119525       32      -0.54979658      -0.52320421      -1.06145227
C        0.99434598       9.83435504       8.39995945       33      -0.47227567      -2.79859734      -1.33062494
C        4.19223347       8.59132403       8.89005118       34      -0.73096752      -0.25941339       0.76807541
C       14.93869871       8.48241021       9.10238749       35      -0.26911658       0.63247937      -0.92654014
C        1.52178636       8.47046434       9.09412793       36       0.52683383       3.03283262       0.53070891
C        0.99659202       8.48668793      10.56478442       37      -0.53191692      -0.43428612       0.20689154
C       15.44021698       8.39716153      10.53933214       38       1.71244049       0.88929152      -0.55120134
C        2.97324658       8.55228433       9.07486058       39       1.79520893      -0.30160940      -0.56272101
C       13.48901350       8.57489518       9.09705598       40      -3.37728024      -0.31595880      -0.39068910
C       12.24362372       8.59246993       8.98557931       41       4.36303091      -0.07936057       0.37325507
C        8.68673463       9.71125288      15.13227173       42      -0.01078103       2.14139795      -0.52704722
C        8.72689211       7.30531133      15.12816467       43      -0.41540408       2.22432184      -1.99560916
C        8.56006771       9.76162005      13.74202133       44       0.31923157       1.60247421       0.03190181
C        8.55210495       7.38052537      13.74580768       45       0.79083747      -1.08881736      -0.26516408
C        8.54553270       8.59926324      13.02972287       46      -1.21946359      -1.61527658      -1.03447604
C        8.76874938       8.51953532      15.82261621       47      -0.02516888      -0.44605803       1.19391918
C        8.83202942       8.49141092      17.24194179       48       0.04650306       0.34084889      -0.75773060
C        8.33135539       8.51642701       0.61605981       49       0.31533188      -0.20617992       1.25136805
C        8.31810457       9.69221790       2.79270670       50      -0.10556222       1.26657581      -0.70571226
C        8.28664957       7.34178922       2.79632911       51       0.22014022      -1.38869965       0.65089071
C        8.21605251       9.72029262       4.18002529       52       0.61132717       3.87059736      -2.81241417
C        8.23636698       7.35412473       4.18240061       53       0.64135927       0.37039435      -1.08181047
C        8.30135282       8.59064020       4.82411604       54      -1.35411334      -3.70147657       2.46215510
C        8.37130502       8.49493247       2.03950549       55      -0.56157947       1.73193693      -0.95465398
C        9.07690490      14.35222564       8.13835117       56       2.37108135      -0.33358529      -2.48134804
C        9.13266372       2.79811658       8.12097757       57      -1.68671715      -1.38084674       1.14507198
C        9.04019655      12.98828527       8.15894350       58       0.92322123      -2.15173554      -0.53718716
C        9.04164975       4.19471153       8.15496473       59       2.68332720      -2.89607668      -2.26826167
C        7.38205001      12.94895663       9.75903457       60       2.23169899      -3.13968563      -1.07728648
C        7.38474784       4.20718919       9.77564928       61       2.56796169      -2.24594641      -1.55332112
C        7.45210194      14.28037235       9.82250501       62      -1.53414488       1.66810727       0.95429379
C        7.43665580       2.70298706       9.82521522       63      -1.53791642       4.91791534       0.65997195
C        8.28699492      14.99422536       8.98035785       64      -1.51483202       2.77856874       1.28393984
C        8.22023326       1.99818343       8.98073876       65       2.78564310       3.20551014      -2.19995189
C        8.20342963      16.40387242       8.97022454       66       0.50870311       7.00952053       0.25150418
C        8.23739983       0.65175276       8.98740243       67      -0.15635642      -9.46004295      -0.29047021
C        1.33687024       9.75385538      12.54913965       68       5.16119576       2.40775466       0.14676499
C        0.95821514       6.61121597      12.15058819       69       1.07696509       0.60302299       0.60899240
I       10.40568918      12.09277210       6.83067380       70       0.34028077      -0.08797833      -0.34177130
I       10.39474217       5.09849181       6.82600929       71       0.42984766       0.18515268      -0.43243289
I        6.07277992      12.05451557      11.07356475       72      -0.36118424      -0.43944716       0.24201255
I        6.08543391       5.13312533      11.09860475       73       0.08833835       0.03359767      -0.15127406
I       14.66387967       5.47298334       8.77156843       74      -0.57753712      -1.37650192       0.31304491
I       14.71048855      11.57498693       9.22303705       75      -0.30730832       0.50564921       0.22946580
I        8.36831392      11.60765095       1.79586304       76      -0.02445072      -0.62659705       0.21885511
I        8.41565572       5.53051683       1.80004952       77      -0.06487040      -0.59905767      -0.17475732
N        8.32327858      12.17438394       8.92417804       78      -2.69031382       2.14945459       1.69405150
N        8.31542487       4.90155825       8.89900085       79      -5.13219738       1.60028696       4.52808046
O        8.28883608       9.72623467       6.90538760       80      -0.68824565      -0.50368124      -0.50394100
O        8.28288807       7.45429094       6.86484142       81      -0.63871533       0.28130007       0.14144234
O       10.33529895       9.73429015       8.93624151       82      -2.52955651       2.13712883      -0.02878895
O       10.34309041       7.44940336       8.92892357       83      -2.66661215      -2.29163718      -0.01358713
O        8.38268289       9.73174119      10.88607876       84      -0.61882418      -1.21338904       1.70252037
O        8.38614867       7.45832723      10.91762616       85      -0.59208167       0.40617085       0.95728040
O        6.29967885       9.68056789       8.82324755       86      -1.79495382      -0.13532349       0.48907655
O        6.30328037       7.42810059       8.80812538       87      -2.57907104       1.43048775       0.58248842
O        1.46250656       9.65956873      11.14551257       88      -0.33387116      -0.52449393      -1.36505198
O        1.61843525       7.40350609      11.17269294       89       0.60901779      -0.07733506      -0.67805588
90
Lattice="16.00085033 0.0 0.0 0.013720572046830653 17.064220073953383 0.0 0.5164437130923323 0.016204467282901057 17.83681363203255" Properties=species:S:1:pos:R:3:spacegroup_kinds:I:1:forces:R:3 spacegroup="P 1" unit_cell=conventional occupancy="_JSON {\"0\": {\"Zn\": 1}, \"1\": {\"Zn\": 1}, \"2\": {\"H\": 1}, \"3\": {\"H\": 1}, \"4\": {\"H\": 1}, \"5\": {\"H\": 1}, \"6\": {\"H\": 1}, \"7\": {\"H\": 1}, \"8\": {\"H\": 1}, \"9\": {\"H\": 1}, \"10\": {\"H\": 1}, \"11\": {\"H\": 1}, \"12\": {\"H\": 1}, \"13\": {\"H\": 1}, \"14\": {\"H\": 1}, \"15\": {\"H\": 1}, \"16\": {\"H\": 1}, \"17\": {\"H\": 1}, \"18\": {\"H\": 1}, \"19\": {\"H\": 1}, \"20\": {\"H\": 1}, \"21\": {\"H\": 1}, \"22\": {\"H\": 1}, \"23\": {\"H\": 1}, \"24\": {\"H\": 1}, \"25\": {\"H\": 1}, \"26\": {\"C\": 1}, \"27\": {\"C\": 1}, \"28\": {\"C\": 1}, \"29\": {\"C\": 1}, \"30\": {\"C\": 1}, \"31\": {\"C\": 1}, \"32\": {\"C\": 1}, \"33\": {\"C\": 1}, \"34\": {\"C\": 1}, \"35\": {\"C\": 1}, \"36\": {\"C\": 1}, \"37\": {\"C\": 1}, \"38\": {\"C\": 1}, \"39\": {\"C\": 1}, \"40\": {\"C\": 1}, \"41\": {\"C\": 1}, \"42\": {\"C\": 1}, \"43\": {\"C\": 1}, \"44\": {\"C\": 1}, \"45\": {\"C\": 1}, \"46\": {\"C\": 1}, \"47\": {\"C\": 1}, \"48\": {\"C\": 1}, \"49\": {\"C\": 1}, \"50\": {\"C\": 1}, \"51\": {\"C\": 1}, \"52\": {\"C\": 1}, \"53\": {\"C\": 1}, \"54\": {\"C\": 1}, \"55\": {\"C\": 1}, \"56\": {\"C\": 1}, \"57\": {\"C\": 1}, \"58\": {\"C\": 1}, \"59\": {\"C\": 1}, \"60\": {\"C\": 1}, \"61\": {\"C\": 1}, \"62\": {\"C\": 1}, \"63\": {\"C\": 1}, \"64\": {\"C\": 1}, \"65\": {\"C\": 1}, \"66\": {\"C\": 1}, \"67\": {\"C\": 1}, \"68\": {\"C\": 1}, \"69\": {\"C\": 1}, \"70\": {\"I\": 1}, \"71\": {\"I\": 1}, \"72\": {\"I\": 1}, \"73\": {\"I\": 1}, \"74\": {\"I\": 1}, \"75\": {\"I\": 1}, \"76\": {\"I\": 1}, \"77\": {\"I\": 1}, \"78\": {\"N\": 1}, \"79\": {\"N\": 1}, \"80\": {\"O\": 1}, \"81\": {\"O\": 1}, \"82\": {\"O\": 1}, \"83\": {\"O\": 1}, \"84\": {\"O\": 1}, \"85\": {\"O\": 1}, \"86\": {\"O\": 1}, \"87\": {\"O\": 1}, \"88\": {\"O\": 1}, \"89\": {\"O\": 1}}" energy=-570.170166015625 free_energy=-570.170166015625 stress="-0.0020034799817949533 0.0005033616907894611 0.001338707865215838 0.0005033616907894611 -0.00805225782096386 -0.0013612009352073073 0.001338707865215838 -0.0013612009352073073 -0.0052177151665091515" pbc="T T T"
Zn       8.18326654      10.12206217       8.98528529        0       1.56495523      -0.25980797      -1.29851043
Zn       8.18727013       7.12565572       8.99823734        1       1.62478781      -0.18391588      -1.21603608
H        1.35297849       9.88638150       7.36986416        2      -0.16075943      -0.33799303       0.37242594
H        1.41158025       7.31427646       7.35493300        3      -0.01298579      -0.31433046       0.07209013
H       15.14735844       9.83260531       7.40307679        4      -0.68131638      -0.41288957      -1.25493121
H       15.15091613       7.47167433       7.23900495        5      -0.17376073       0.05465810      -0.37716687
H        1.32055999       6.47164725       8.89279538        6       0.98298907      -2.46741819       0.98968065
H        1.36518996      10.67247266       8.85020975        7       1.11699319       2.03645468       1.65563643
H       15.02151792       9.21042140      11.07157510        8      -0.84802198       1.87397194       1.34268641
H       15.05562994       7.51195434      10.97926498        9      -0.34272623      -1.72063398       0.87868834
H        8.70684534      10.65339874      15.67329254       10      -0.10024162      -0.36917329       0.23098239
H        8.82957164       6.47076999      15.71319990       11       0.06947540      -2.24283028       0.75371301
H        8.48404031      10.68970336      13.14713729       12      -0.02295708      -0.13313366       0.96260124
H        8.56632629       6.47405408      13.20263609       13      -0.30962420       0.13360168       0.00427086
H        8.18395314      10.63881666       4.72168997       14      -0.15100494       0.16694081       0.07498690
H        8.30333853       6.48157899       4.76567405       15      -0.08806791      -1.88964605       1.18403280
H        9.73076111      14.88128352       7.44782160       16       0.15471563       0.19616243      -0.24791120
H        9.82581955       2.31515442       7.46319514       17      -0.02445142       0.22887905       0.03820950
H        6.78130979      14.86256916      10.47584345       18       0.53756249      -0.64107651      -0.29029748
H        6.76284921       2.23836256      10.51679288       19      -0.68060446      -0.57559073       0.78582168
H        2.10744357       9.13017898      13.07704789       20      -0.64357769      -0.21982482      -0.27602059