88
Lattice="8.23702665 0.0 0.0 -1.0710265150573068e-05 8.902553179993557 0.0 -8.878562892942964e-06 -2.4914750726003 11.46727556987576" Properties=species:S:1:pos:R:3:spacegroup_kinds:I:1:forces:R:3 spacegroup="P 1" unit_cell=conventional occupancy="_JSON {\"0\": {\"Zn\": 1}, \"1\": {\"Zn\": 1}, \"2\": {\"Zn\": 1}, \"3\": {\"Zn\": 1}, \"4\": {\"H\": 1}, \"5\": {\"H\": 1}, \"6\": {\"H\": 1}, \"7\": {\"H\": 1}, \"8\": {\"H\": 1}, \"9\": {\"H\": 1}, \"10\": {\"H\": 1}, \"11\": {\"H\": 1}, \"12\": {\"H\": 1}, \"13\": {\"H\": 1}, \"14\": {\"H\": 1}, \"15\": {\"H\": 1}, \"16\": {\"H\": 1}, \"17\": {\"H\": 1}, \"18\": {\"H\": 1}, \"19\": {\"H\": 1}, \"20\": {\"H\": 1}, \"21\": {\"H\": 1}, \"22\": {\"H\": 1}, \"23\": {\"H\": 1}, \"24\": {\"H\": 1}, \"25\": {\"H\": 1}, \"26\": {\"H\": 1}, \"27\": {\"H\": 1}, \"28\": {\"H\": 1}, \"29\": {\"H\": 1}, \"30\": {\"H\": 1}, \"31\": {\"H\": 1}, \"32\": {\"C\": 1}, \"33\": {\"C\": 1}, \"34\": {\"C\": 1}, \"35\": {\"C\": 1}, \"36\": {\"C\": 1}, \"37\": {\"C\": 1}, \"38\": {\"C\": 1}, \"39\": {\"C\": 1}, \"40\": {\"C\": 1}, \"41\": {\"C\": 1}, \"42\": {\"C\": 1}, \"43\": {\"C\": 1}, \"44\": {\"C\": 1}, \"45\": {\"C\": 1}, \"46\": {\"C\": 1}, \"47\": {\"C\": 1}, \"48\": {\"C\": 1}, \"49\": {\"C\": 1}, \"50\": {\"C\": 1}, \"51\": {\"C\": 1}, \"52\": {\"C\": 1}, \"53\": {\"C\": 1}, \"54\": {\"C\": 1}, \"55\": {\"C\": 1}, \"56\": {\"C\": 1}, \"57\": {\"C\": 1}, \"58\": {\"C\": 1}, \"59\": {\"C\": 1}, \"60\": {\"C\": 1}, \"61\": {\"C\": 1}, \"62\": {\"C\": 1}, \"63\": {\"C\": 1}, \"64\": {\"N\": 1}, \"65\": {\"N\": 1}, \"66\": {\"N\": 1}, \"67\": {\"N\": 1}, \"68\": {\"O\": 1}, \"69\": {\"O\": 1}, \"70\": {\"O\": 1}, \"71\": {\"O\": 1}, \"72\": {\"O\": 1}, \"73\": {\"O\": 1}, \"74\": {\"O\": 1}, \"75\": {\"O\": 1}, \"76\": {\"O\": 1}, \"77\": {\"O\": 1}, \"78\": {\"O\": 1}, \"79\": {\"O\": 1}, \"80\": {\"O\": 1}, \"81\": {\"O\": 1}, \"82\": {\"O\": 1}, \"83\": {\"O\": 1}, \"84\": {\"O\": 1}, \"85\": {\"O\": 1}, \"86\": {\"O\": 1}, \"87\": {\"O\": 1}}" energy=-585.3366088867188 free_energy=-585.3366088867188 stress="-0.003078283742070198 -0.00016552547458559275 0.00026420209906063974 -0.00016552547458559275 -0.006210056599229574 -0.000369921384844929 0.00026420209906063974 -0.000369921384844929 -0.004533813335001469" pbc="T T T"
Zn       7.96928594       4.94856643       6.78339794        0      -0.02612311       0.02038572      -0.11268097
Zn       3.84972886       4.66605406      10.41765671        1      -0.01735108      -0.01132059       0.09846251
Zn       0.26705939       1.46153200       4.68303248        2       0.01552907      -0.02250756       0.09957661
Zn       4.38591272       1.74467212       1.04835806        3       0.01883060       0.01404318      -0.09199423
H        7.15604425       4.13935655       4.53119175        4      -0.08984329       0.02121620       0.03322291
H        3.03749233       7.96824255       1.20006895        5      -0.09692582      -0.02923065      -0.04509911
H        1.07787410       2.27116126       6.93611525        6       0.10716424      -0.02439053      -0.05637520
H        5.19693848      -1.55704933      10.26587498        7       0.07999353       0.01100157       0.01656831
H        6.16658100       3.59486979       5.72175773        8      -0.04464598       0.04245861      -0.05944946
H        2.04820914       8.51283067       0.01187239        9      -0.08434539       0.00488248       0.03076387
H        2.06888488       2.81722810       5.74527738       10       0.03570471      -0.03342424       0.05796729
H        6.18735511      -2.10201802      11.45527424       11       0.04281047       0.03137703      -0.05638336
H        6.95841177       6.57486140       3.77275745       12       0.05655652      -0.00168165      -0.00339118
H        2.83944935       5.53208396       1.95826288       13       0.07417780      -0.00511351       0.01378344
H        1.27635595      -0.16487899       7.69203616       14      -0.06910978      -0.00439420       0.00466722
H        5.39474399       0.87761666       9.50668685       15      -0.04892781       0.00351943      -0.00231590
H        2.84269525       7.83514496       3.72645510       16      -0.03381692       0.04679996      -0.01819662
H        6.96150463       4.27271099       2.00471939       17      -0.04720648      -0.05386928       0.01666997
H        5.39206624      -1.42455063       7.73930145       18       0.05495052      -0.05599646       0.02198598
H        1.27289914       2.13914311       9.46018977       19       0.06720084       0.05942607      -0.02244613
H        4.02891087       4.43388729       6.08929247       20       0.01227729       0.00992553      -0.00945044
H        8.14766062       5.18224410      11.10948502       21       0.01488335       0.00361046      -0.00069095
H        4.20543274       1.97603142       5.37669101       22      -0.00797228      -0.00008003      -0.00419649
H        0.08735198       1.22875685       0.35550276       23      -0.00214726      -0.01878163       0.01634319
H        0.35756000       6.69265147       8.36825628       24      -0.11377978       0.06887087      -0.01074946
H        4.47662804       2.92304693       8.83405459       25      -0.03701171      -0.08869269      -0.03421623
H        7.87694795      -0.28295862       3.09957638       26       0.04968967      -0.08804997      -0.02410914
H        3.75975065       3.48752556       2.63383960       27       0.02494776       0.08381936       0.03810708
H        7.50024032      -1.52694992       7.37087959       28       0.03318538      -0.02743682       0.03627921
H        3.38190314       2.24117889       9.82962617       29       0.03128565      -0.00951627      -0.02643440
H        0.73476175       7.93888817       4.09736129       30      -0.03847070       0.00952921      -0.04660612
H        4.85230783       4.17099942       1.63671570       31      -0.03794372      -0.05135490       0.06145565
C        5.59782835       5.39354143       4.95326796       32       0.43976671      -0.52101672       0.12132236
C        1.48063845       6.71205231       0.77817563       33       0.34582058       0.58350319      -0.17131872
C        2.63742395       1.01688308       6.51072023       34      -0.54050541       0.49600306      -0.07932130
C        6.75590682      -0.30356883      10.68634157       35      -0.43247023      -0.51679879       0.14588740
C        5.92940591       6.45350678       4.10132952       36      -0.04413629       0.13232076      -0.06078508
C        1.81083155       5.65255832       1.63003721       37      -0.00089896      -0.08750429       0.04899409
C        2.30481075      -0.04496806       7.36275988       38       0.06441302      -0.04665298       0.02394100
C        6.42419545       0.75790182       9.83519467       39       0.02311460       0.07168587      -0.05079732
C        4.93439597       7.33225025       3.66388976       40      -0.04846628      -0.09063242       0.00461003
C        0.81612045       4.77678255       2.06864940       41      -0.13732302       0.02422298      -0.00795513
C        3.30056932      -0.92039589       7.80193410       42       0.08976683       0.00439125       0.00526077
C        7.41888626       1.63444835       9.39601317       43       0.12154527      -0.06052129       0.02936575
C        3.61042427       7.15456991       4.08548488       44      -0.05752730       0.07009062      -0.00602284
C        7.72841421       4.95285281       1.64444997       45       0.00501914      -0.03358990       0.02908606
C        4.62557717      -0.74405578       7.37980796       46      -0.01973400      -0.01288010      -0.01498152
C        0.50752066       1.45784766       9.81970863       47      -0.05705807       0.03102365      -0.01705437
C        3.28371402       6.11212385       4.95458395       48       0.05400895      -0.04657940      -0.04794724
C        7.40175266       5.99750382       0.77633914       49       0.08636631      -0.04465713       0.08199541
C        4.95018569       0.29935408       6.50923254       50       0.02044484      -0.08787235       0.12466070
C        0.83299835       0.41410712      10.68893988       51      -0.03712639       0.01820352      -0.08165625
C        4.28371630       5.23972715       5.40145183       52      -0.17586327       0.04229633      -0.04322931
C        0.16522794       6.86779866       0.32921410       53      -0.10967966      -0.04782358       0.07171002
C        3.95054310       1.16931762       6.06279922       54       0.16256896       0.02520175       0.01191244
C        8.07029401      -0.45735571      11.13603676       55       0.11422418       0.05415500      -0.08420061
C        5.25435498      -0.46629764       2.70566906       56      -0.05490261       0.03918606      -0.04637511
C        1.13548246       3.67218709       3.02750976       57       0.01469058      -0.02785447       0.03806503
C        2.98095790       6.87505144       8.75987619       58       0.04256094       0.03895190       0.03918709
C        7.09886790       2.73940588       8.43732628       59      -0.05722772      -0.04212871       0.02045979
C        1.86845134       5.88537908       5.37354469       60       0.21150042      -0.08120354      -0.08653744
C        5.98871238       6.22158608       0.35867706       61       0.05048749       0.16952501       0.03804977
C        6.36629870       0.52281388       6.09243829       62      -0.15431480       0.14469276       0.04998802
C        2.24743254       0.18806850      11.10700065       63      -0.08561391      -0.06639834      -0.08305249
N        6.59971297       4.45409146       5.34923319       64      -0.03250647       0.19639394       0.15676209
N        2.47989428       7.65402175       0.38198795       65       0.03451619      -0.26323348      -0.09603062
N        1.63370609       1.95852886       6.11612311       66       0.09119660      -0.25619224      -0.11642814
N        5.75340434      -1.24325907      11.08342615       67       0.07290323       0.24007308       0.14618918
O        6.43550266      -0.16628287       2.39427790       68      -0.02095857      -0.02532394      -0.01652306
O        2.31732438       3.37127514       3.33883719       69      -0.06530070       0.04180049       0.00231782
O        1.79894682       6.57745859       9.07188951       70       0.05319580       0.00731295       0.01140180
O        5.91679631       3.03969933       8.12677302       71       0.05434167      -0.03035668      -0.01242311
O        4.21849968       0.13374910       2.20470483       72       0.06341342       0.07257932       0.18335325
O        0.10056248       3.07268660       3.52865831       73       0.02941558      -0.08114215      -0.18078849
O        4.01766677       6.27771500       9.26201459       74      -0.09260427      -0.08837265      -0.19366275
O        8.13339133       3.33660478       7.93810637       75       0.03205319       0.14828321       0.12554061
O        0.93078482       6.62129886       4.96394550       76       0.01298160       0.08129463       0.02281664
O        5.04864535       5.48708295       0.76979473       77       0.08900699      -0.04817069      -0.05106790
O        7.30650214      -0.21107292       6.50188341       78      -0.07219631      -0.08092022      -0.01822659
O        3.18727445       0.92465910      10.69745847       79      -0.10487997       0.02461630       0.05379236
O        1.64818641       4.89807777       6.17746376       80      -0.02035505       0.07052900       0.12002076
O        5.76503679       4.72031940      11.02250243       81       0.02001643      -0.16797777      -0.05265073
O        6.58782380       1.51107149       5.28887258       82       0.00652713      -0.08728322      -0.10997865
O        2.47019218       1.69154837       0.44299058       83      -0.00792114       0.09684153       0.09584089
O        7.70484443       6.54452857       7.91016608       84       0.11917175      -0.06234705      -0.05638051
O        3.58833472       3.06977315       9.28939608       85       0.03516108       0.12097296       0.09229989
O        0.52873134      -0.13572112       3.55460987       86      -0.04203035       0.10242173       0.10841361
O        4.64712834       3.33996420       2.17795696       87      -0.01216492      -0.04816288      -0.13891734
88
Lattice="8.23702665 0.0 0.0 -1.0710265150573068e-05 8.902553179993557 0.0 -8.878562892942964e-06 -2.4914750726003 11.46727556987576" Properties=species:S:1:pos:R:3:spacegroup_kinds:I:1:forces:R:3 spacegroup="P 1" unit_cell=conventional occupancy="_JSON {\"0\": {\"Zn\": 1}, \"1\": {\"Zn\": 1}, \"2\": {\"Zn\": 1}, \"3\": {\"Zn\": 1}, \"4\": {\"H\": 1}, \"5\": {\"H\": 1}, \"6\": {\"H\": 1}, \"7\": {\"H\": 1}, \"8\": {\"H\": 1}, \"9\": {\"H\": 1}, \"10\": {\"H\": 1}, \"11\": {\"H\": 1}, \"12\": {\"H\": 1}, \"13\": {\"H\": 1}, \"14\": {\"H\": 1}, \"15\": {\"H\": 1}, \"16\": {\"H\": 1}, \"17\": {\"H\": 1}, \"18\": {\"H\": 1}, \"19\": {\"H\": 1}, \"20\": {\"H\": 1}, \"21\": {\"H\": 1}, \"22\": {\"H\": 1}, \"23\": {\"H\": 1}, \"24\": {\"H\": 1}, \"25\": {\"H\": 1}, \"26\": {\"H\": 1}, \"27\": {\"H\": 1}, \"28\": {\"H\": 1}, \"29\": {\"H\": 1}, \"30\": {\"H\": 1}, \"31\": {\"H\": 1}, \"32\": {\"C\": 1}, \"33\": {\"C\": 1}, \"34\": {\"C\": 1}, \"35\": {\"C\": 1}, \"36\": {\"C\": 1}, \"37\": {\"C\": 1}, \"38\": {\"C\": 1}, \"39\": {\"C\": 1}, \"40\": {\"C\": 1}, \"41\": {\"C\": 1}, \"42\": {\"C\": 1}, \"43\": {\"C\": 1}, \"44\": {\"C\": 1}, \"45\": {\"C\": 1}, \"46\": {\"C\": 1}, \"47\": {\"C\": 1}, \"48\": {\"C\": 1}, \"49\": {\"C\": 1}, \"50\": {\"C\": 1}, \"51\": {\"C\": 1}, \"52\": {\"C\": 1}, \"53\": {\"C\": 1}, \"54\": {\"C\": 1}, \"55\": {\"C\": 1}, \"56\": {\"C\": 1}, \"57\": {\"C\": 1}, \"58\": {\"C\": 1}, \"59\": {\"C\": 1}, \"60\": {\"C\": 1}, \"61\": {\"C\": 1}, \"62\": {\"C\": 1}, \"63\": {\"C\": 1}, \"64\": {\"N\": 1}, \"65\": {\"N\": 1}, \"66\": {\"N\": 1}, \"67\": {\"N\": 1}, \"68\": {\"O\": 1}, \"69\": {\"O\": 1}, \"70\": {\"O\": 1}, \"71\": {\"O\": 1}, \"72\": {\"O\": 1}, \"73\": {\"O\": 1}, \"74\": {\"O\": 1}, \"75\": {\"O\": 1}, \"76\": {\"O\": 1}, \"77\": {\"O\": 1}, \"78\": {\"O\": 1}, \"79\": {\"O\": 1}, \"80\": {\"O\": 1}, \"81\": {\"O\": 1}, \"82\": {\"O\": 1}, \"83\": {\"O\": 1}, \"84\": {\"O\": 1}, \"85\": {\"O\": 1}, \"86\": {\"O\": 1}, \"87\": {\"O\": 1}}" energy=-585.3568115234375 free_energy=-585.3568115234375 stress="-0.003448150586336851 -0.00030322768725454807 0.0002218309964518994 -0.00030322768725454807 -0.006339881103485823 -0.0003199246129952371 0.0002218309964518994 -0.0003199246129952371 -0.0043725911527872086" pbc="T T T"
Zn       7.96806388       4.94982525       6.78206205        0      -0.01305345       0.00966121      -0.10320297
Zn       3.84808867       4.66549769      10.41874823        1      -0.01142476      -0.00627026       0.07814064
Zn       0.26577408       1.46143288       4.68371304        2       0.00588907      -0.03479148       0.08309640
Zn       4.38597193       1.74593734       1.04646796        3       0.00303027       0.00546889      -0.07150515
H        7.15419946       4.13910139       4.53073267        4      -0.09866829       0.04568633       0.07390730
H        3.03520376       7.96717284       1.19947154        5      -0.11080895      -0.04604667      -0.08902305
H        1.07764751       2.27171916       6.93521420        6       0.13598332      -0.06652237      -0.11773947
H        5.19717432      -1.55591425      10.26615885        7       0.07737784       0.01711798       0.03771228
H        6.16455729       3.59454545       5.72022408        8      -0.01698786       0.11369561      -0.07020678
H        2.04542111       8.51200790       0.01144275        9      -0.06085885      -0.02566613       0.03080634
H        2.06693463       2.81647948       5.74595061       10       0.05506232      -0.02418956       0.02973607
H        6.18788258      -2.10106819      11.45471997       11       0.02289562       0.06705211      -0.05989278
H        6.95796218       6.57321515       3.77226714       12       0.06808116       0.02695507      -0.01935448
H        2.83928977       5.53198013       1.95747623       13       0.06108634      -0.01802380       0.01775445
H        1.27418736      -0.16482253       7.69051729       14      -0.01850410      -0.01128217      -0.00611398
H        5.39280753       0.87884147       9.50602019       15      -0.03941545       0.01297413      -0.00858782
H        2.84089301       7.83506755       3.72500844       16      -0.05753553       0.06508406      -0.02466898
H        6.95936332       4.27187233       2.00376082       17      -0.04436754      -0.04962674       0.01401371
H        5.39287334      -1.42525213       7.73933289       18      -0.00477348      -0.00968689      -0.00275777
H        1.27333204       2.13880322       9.45978035       19       0.04220194       0.04826140      -0.01650333
H        4.02840571       4.43375849       6.08860428       20      -0.00154193       0.02809492      -0.02247976
H        8.14715662       5.18288386      11.10865401       21      -0.00048069      -0.01526846       0.00867708
H        4.20474543       1.97626407       5.37592773       22       0.01590582       0.01114984      -0.01681818
H        0.08612020       1.22849436       0.35419864       23       0.01344860      -0.00316891       0.00706506
H        0.35497615       6.69244982       8.36871128       24      -0.05884144       0.07095619       0.01105105
H        4.47537725       2.92237059       8.83314066       25      -0.05097923      -0.07411263      -0.02611943
H        7.87547287      -0.28481186       3.10007871       26       0.04408444      -0.07485297      -0.02924700
H        3.75817278       3.48843674       2.63307644       27       0.03983337       0.07672139       0.02797205
H        7.49960618      -1.52662069       7.37097612       28       0.03611079      -0.05615167       0.04935570
H        3.37985123       2.24207260       9.82811364       29       0.03341929       0.00284731      -0.02858744
H        0.73282570       7.93836944       4.09699449       30      -0.03059912       0.01814312      -0.04627519
H        4.85091791       4.16958023       1.63714563       31      -0.01617629       0.02517933       0.00962720
C        5.60060687       5.39062953       4.95117624       32       0.12320461      -0.31240115       0.11298310
C        1.48242276       6.71494666       0.77639116       33       0.11012800       0.33570573      -0.08165286
C        2.63442767       1.01979225       6.50867978       34      -0.28971851       0.28279939      -0.01526039
C        6.75293627      -0.30654517      10.68461864       35      -0.21688272      -0.30515820       0.10521792
C        5.92898698       6.45497582       4.10035293       36      -0.05275105       0.01263248      -0.00793129
C        1.81000086       5.65153410       1.63001417       37      -0.00912774       0.02519957      -0.02723352
C        2.30457399      -0.04605575       7.36164648       38      -0.01668085       0.07032856      -0.02577291
C        6.42278504       0.75867788       9.83320377       39       0.04374320      -0.03603228       0.02395457
C        4.93206769       7.33095672       3.66342491       40      -0.01572160      -0.00533506      -0.05062488
C        0.81370856       4.77700376       2.06774889       41      -0.10180113       0.00166497      -0.00099891
C        3.29997695      -0.91967547       7.80143359       42       0.08638270       0.00380421      -0.00365052
C        7.41987420       1.63355036       9.39625913       43      -0.00072015      -0.01929742      -0.03592449
C        3.60801123       7.15580863       4.08460026       44       0.01797389       0.03916687      -0.01519831
C        7.72640335       4.95210866       1.64368181       45       0.01139266      -0.03903613       0.04059021
C        4.62443550      -0.74372876       7.37858945       46       0.05152853      -0.12857637       0.07258070
C        0.50649685       1.45802934       9.81959199       47       0.02230461       0.07756446      -0.05104546
C        3.28456793       6.11242354       4.95291069       48      -0.05182976      -0.05125431      -0.04192583
C        7.40116158       5.99701308       0.77630183       49       0.06775208      -0.01386485       0.07222862
C        4.94971106       0.29763981       6.51016808       50      -0.01238543       0.04502138       0.03777621
C        0.83238065       0.41467519      10.68685256       51      -0.02496229      -0.04121783      -0.04671510
C        4.28086630       5.24014888       5.39968339       52       0.08558518      -0.02355605      -0.06141134
C        0.16261005       6.86729256       0.32867732       53       0.06743778       0.00432908       0.07902971
C        3.95178878       1.17001395       6.06216528       54       0.00841274      -0.00475010       0.06912667
C        8.07174947      -0.45676117      11.13400769       55      -0.07488787      -0.00618339      -0.09418575
C        5.25348699      -0.46529934       2.70331991       56      -0.08530185      -0.08236226       0.08654539
C        1.13343905       3.67117299       3.02587913       57       0.03374112       0.00477213       0.03309311
C        2.97959399       6.87703696       8.75821238       58       0.05060719      -0.05204093       0.08181967
C        7.09676035       2.73820625       8.43574428       59       0.06649753      -0.02425399       0.06736000
C        1.87012701       5.88317564       5.37162844       60       0.08139318       0.04188684      -0.08516498
C        5.99011123       6.22342074       0.35835905       61      -0.09611881      -0.00958133       0.08375495
C        6.36355328       0.52341336       6.09209502       62      -0.06824121       0.05641890       0.05932575
C        2.24551241       0.18633010      11.10469047       63      -0.07096398      -0.01871639      -0.04974866
N        6.59785034       4.45706169       5.34948753       64       0.07750429      -0.03732568       0.14039060
N        2.47804050       7.65150648       0.37967583       65       0.13191572      -0.07907474      -0.06648153
N        1.63413439       1.95565924       6.11365308       66      -0.07103740      -0.09153211      -0.04406714
N        5.75328622      -1.24050858      11.08436399       67       0.00687349       0.07257244       0.13203073
O        6.43361320      -0.16621809       2.39388620       68       0.06649369      -0.00292856      -0.05403773
O        2.31523219       3.37301687       3.33926103       69      -0.04150894       0.03569411      -0.00031109
O        1.79812008       6.57764697       9.07051840       70       0.04503146       0.03327546       0.00883728
O        5.91659558       3.03942809       8.12504050       71      -0.02039236      -0.03850707      -0.02739304
O        4.21829109       0.13393355       2.20652552       72      -0.02279706       0.15097678       0.09871486
O        0.09992565       3.07013994       3.52606823       73      -0.01387531      -0.09208767      -0.16480613
O        4.01500817       6.27544133       9.25968760       74      -0.07611921      -0.05174164      -0.19503573
O        8.13213146       3.33851110       7.93994440       75       0.02690964       0.13282239       0.10243830
O        0.93068103       6.62192877       4.96375070       76       0.10086711       0.00129461       0.04274356
O        5.04931370       5.48455204       0.76805099       77       0.17285886       0.04063824      -0.07775354
O        7.30387119      -0.21306307       6.50067828       78      -0.10087949      -0.02551591      -0.03685097
O        3.18449856       0.92429934      10.69826520       79      -0.05278328       0.07175848       0.00057480
O        1.64788980       4.89963433       6.17865007       80      -0.00332887       0.03794116       0.10641173
O        5.76331927       4.71752452      11.02051208       81       0.04194601      -0.08336969      -0.07949370
O        6.58565663       1.50951983       5.28631330       82       0.00423647      -0.07733202      -0.09104317
O        2.47046746       1.69314285       0.44281546       83      -0.03671762       0.02962044       0.11246406
O        7.70542845       6.54292996       7.90897194       84       0.04850373      -0.01445985      -0.08878960
O        3.58769610       3.07189812       9.28963467       85       0.04534395       0.07188383       0.08234629
O        0.52661509      -0.13528068       3.55491779       86      -0.03622130       0.07626826       0.11271030
O        4.64532693       3.34031987       2.17561357       87      -0.05220766      -0.11793619      -0.06437293
88
Lattice="8.23702665 0.0 0.0 -1.0710265150573068e-05 8.902553179993557 0.0 -8.878562892942964e-06 -2.4914750726003 11.46727556987576" Properties=species:S:1:pos:R:3:spacegroup_kinds:I:1:forces:R:3 spacegroup="P 1" unit_cell=conventional occupancy="_JSON {\"0\": {\"Zn\": 1}, \"1\": {\"Zn\": 1}, \"2\": {\"Zn\": 1}, \"3\": {\"Zn\": 1}, \"4\": {\"H\": 1}, \"5\": {\"H\": 1}, \"6\": {\"H\": 1}, \"7\": {\"H\": 1}, \"8\": {\"H\": 1}, \"9\": {\"H\": 1}, \"10\": {\"H\": 1}, \"11\": {\"H\": 1}, \"12\": {\"H\": 1}, \"13\": {\"H\": 1}, \"14\": {\"H\": 1}, \"15\": {\"H\": 1}, \"16\": {\"H\": 1}, \"17\": {\"H\": 1}, \"18\": {\"H\": 1}, \"19\": {\"H\": 1}, \"20\": {\"H\": 1}, \"21\": {\"H\": 1}, \"22\": {\"H\": 1}, \"23\": {\"H\": 1}, \"24\": {\"H\": 1}, \"25\": {\"H\": 1}, \"26\": {\"H\": 1}, \"27\": {\"H\": 1}, \"28\": {\"H\": 1}, \"29\": {\"H\": 1}, \"30\": {\"H\": 1}, \"31\": {\"H\": 1}, \"32\": {\"C\": 1}, \"33\": {\"C\": 1}, \"34\": {\"C\": 1}, \"35\": {\"C\": 1}, \"36\": {\"C\": 1}, \"37\": {\"C\": 1}, \"38\": {\"C\": 1}, \"39\": {\"C\": 1}, \"40\": {\"C\": 1}, \"41\": {\"C\": 1}, \"42\": {\"C\": 1}, \"43\": {\"C\": 1}, \"44\": {\"C\": 1}, \"45\": {\"C\": 1}, \"46\": {\"C\": 1}, \"47\": {\"C\": 1}, \"48\": {\"C\": 1}, \"49\": {\"C\": 1}, \"50\": {\"C\": 1}, \"51\": {\"C\": 1}, \"52\": {\"C\": 1}, \"53\": {\"C\": 1}, \"54\": {\"C\": 1}, \"55\": {\"C\": 1}, \"56\": {\"C\": 1}, \"57\": {\"C\": 1}, \"58\": {\"C\": 1}, \"59\": {\"C\": 1}, \"60\": {\"C\": 1}, \"61\": {\"C\": 1}, \"62\": {\"C\": 1}, \"63\": {\"C\": 1}, \"64\": {\"N\": 1}, \"65\": {\"N\": 1}, \"66\": {\"N\": 1}, \"67\": {\"N\": 1}, \"68\": {\"O\": 1}, \"69\": {\"O\": 1}, \"70\": {\"O\": 1}, \"71\": {\"O\": 1}, \"72\": {\"O\": 1}, \"73\": {\"O\": 1}, \"74\": {\"O\": 1}, \"75\": {\"O\": 1}, \"76\": {\"O\": 1}, \"77\": {\"O\": 1}, \"78\": {\"O\": 1}, \"79\": {\"O\": 1}, \"80\": {\"O\": 1}, \"81\": {\"O\": 1}, \"82\": {\"O\": 1}, \"83\": {\"O\": 1}, \"84\": {\"O\": 1}, \"85\": {\"O\": 1}, \"86\": {\"O\": 1}, \"87\": {\"O\": 1}}" energy=-585.3676147460938 free_energy=-585.3676147460938 stress="-0.003671218641102314 -0.00044668951886706054 0.00037251858157105744 -0.00044668951886706054 -0.006090421695262194 -0.0005773771554231644 0.00037251858157105744 -0.0005773771554231644 -0.004444901365786791" pbc="T T T"
Zn       7.96596230       4.95049191       6.78012877        0      -0.00195184       0.00962537      -0.07643390
Zn       3.84699827       4.66444923      10.41862909        1       0.01050146       0.00644685       0.05851327
Zn       0.26416494       1.46122778       4.68399471        2       0.00258058      -0.04041393       0.06906480
Zn       4.38411118       1.74704303       1.04508802        3      -0.00729710      -0.01915639      -0.05566989
H        7.15148998       4.13982139       4.53198206        4      -0.05458185       0.01627420       0.03365095
H        3.03225708       7.96668930       1.19745530        5      -0.07022095      -0.04199250      -0.05083712
H        1.07986856       2.26994965       6.93296862        6       0.06996432      -0.03931713      -0.04371558
H        5.19732715      -1.55649596      10.26585411        7       0.08000785       0.03045377       0.07126965
H        6.16272800       3.59430012       5.71940546        8      -0.02896410       0.07687545      -0.04869809
H        2.04364781       8.51229577       0.01151258        9      -0.01571725      -0.09299322       0.04129453
H        2.06610046       2.81717398       5.74525824       10       0.01802462      -0.08689323       0.04613966
H        6.18703830      -2.10062430      11.45484079       11       0.00551119       0.08919379      -0.05629893
H        6.95757136       6.57319625       3.77098569       12       0.00166637       0.02588605      -0.00415618
H        2.83886341       5.53213884       1.95734299       13       0.00836602      -0.01699058       0.00175870
H        1.27252059      -0.16469666       7.68911698       14       0.02182220      -0.00750580      -0.01787517
H        5.39087872       0.87922144       9.50450894       15       0.00990720       0.01309682       0.00965932
H        2.83860812       7.83555129       3.72307698       16      -0.04980299       0.05749959      -0.02191241
H        6.95711062       4.27201143       2.00275080       17      -0.04735611      -0.05481550       0.01785585
H        5.39206924      -1.42475988       7.73899571       18       0.02688700      -0.04031065       0.00924362
H        1.27204381       2.13980904       9.45855513       19       0.04632512       0.04728715      -0.01560508
H        4.02814594       4.43491365       6.08716581       20      -0.01363541      -0.01470846       0.01273549
H        8.14593443       5.18294239      11.10737701       21       0.00877119      -0.06282364       0.04709122
H        4.20351809       1.97575478       5.37464416       22       0.02557498       0.02272452      -0.02848898
H        0.08507432       1.22868428       0.35327080       23       0.01112579      -0.00470430       0.00589561
H        0.35205283       6.69270453       8.36966919       24      -0.03036332       0.07251061       0.01904627
H        4.47315036       2.92161589       8.83224050       25      -0.03145049      -0.07425351      -0.03520130