94
Lattice="8.2945832 0.0 0.0 0.7272073336926627 10.176818970368277 0.0 0.010770568524594312 0.889421406538611 10.779816629211853" Properties=species:S:1:pos:R:3:spacegroup_kinds:I:1:forces:R:3 spacegroup="P 1" unit_cell=conventional occupancy="_JSON {\"0\": {\"Cu\": 1}, \"1\": {\"Cu\": 1}, \"2\": {\"H\": 1}, \"3\": {\"H\": 1}, \"4\": {\"H\": 1}, \"5\": {\"H\": 1}, \"6\": {\"H\": 1}, \"7\": {\"H\": 1}, \"8\": {\"H\": 1}, \"9\": {\"H\": 1}, \"10\": {\"H\": 1}, \"11\": {\"H\": 1}, \"12\": {\"H\": 1}, \"13\": {\"H\": 1}, \"14\": {\"H\": 1}, \"15\": {\"H\": 1}, \"16\": {\"H\": 1}, \"17\": {\"H\": 1}, \"18\": {\"H\": 1}, \"19\": {\"H\": 1}, \"20\": {\"H\": 1}, \"21\": {\"H\": 1}, \"22\": {\"H\": 1}, \"23\": {\"H\": 1}, \"24\": {\"H\": 1}, \"25\": {\"H\": 1}, \"26\": {\"H\": 1}, \"27\": {\"H\": 1}, \"28\": {\"H\": 1}, \"29\": {\"H\": 1}, \"30\": {\"H\": 1}, \"31\": {\"H\": 1}, \"32\": {\"H\": 1}, \"33\": {\"H\": 1}, \"34\": {\"H\": 1}, \"35\": {\"H\": 1}, \"36\": {\"H\": 1}, \"37\": {\"H\": 1}, \"38\": {\"H\": 1}, \"39\": {\"H\": 1}, \"40\": {\"H\": 1}, \"41\": {\"H\": 1}, \"42\": {\"C\": 1}, \"43\": {\"C\": 1}, \"44\": {\"C\": 1}, \"45\": {\"C\": 1}, \"46\": {\"C\": 1}, \"47\": {\"C\": 1}, \"48\": {\"C\": 1}, \"49\": {\"C\": 1}, \"50\": {\"C\": 1}, \"51\": {\"C\": 1}, \"52\": {\"C\": 1}, \"53\": {\"C\": 1}, \"54\": {\"C\": 1}, \"55\": {\"C\": 1}, \"56\": {\"C\": 1}, \"57\": {\"C\": 1}, \"58\": {\"C\": 1}, \"59\": {\"C\": 1}, \"60\": {\"C\": 1}, \"61\": {\"C\": 1}, \"62\": {\"C\": 1}, \"63\": {\"C\": 1}, \"64\": {\"C\": 1}, \"65\": {\"C\": 1}, \"66\": {\"C\": 1}, \"67\": {\"C\": 1}, \"68\": {\"C\": 1}, \"69\": {\"C\": 1}, \"70\": {\"C\": 1}, \"71\": {\"C\": 1}, \"72\": {\"C\": 1}, \"73\": {\"C\": 1}, \"74\": {\"C\": 1}, \"75\": {\"C\": 1}, \"76\": {\"C\": 1}, \"77\": {\"C\": 1}, \"78\": {\"N\": 1}, \"79\": {\"N\": 1}, \"80\": {\"N\": 1}, \"81\": {\"N\": 1}, \"82\": {\"N\": 1}, \"83\": {\"N\": 1}, \"84\": {\"N\": 1}, \"85\": {\"N\": 1}, \"86\": {\"O\": 1}, \"87\": {\"O\": 1}, \"88\": {\"O\": 1}, \"89\": {\"O\": 1}, \"90\": {\"O\": 1}, \"91\": {\"O\": 1}, \"92\": {\"O\": 1}, \"93\": {\"O\": 1}}" energy=-604.5391235351562 free_energy=-604.5391235351562 stress="-0.0015558683080598712 -0.0016208747401833534 -0.0034948494285345078 -0.0016208747401833534 -0.01888093538582325 -0.002861171029508114 -0.0034948494285345078 -0.002861171029508114 -0.008690406568348408" pbc="T T T"
Cu       0.69064218       6.07802883      10.74173144        0      -0.13609935      -0.16570020       0.10756955
Cu       4.44815862       0.51016200       5.36479423        1       0.02606810       0.23695648      -0.20544606
H        6.79070955       0.79357482       0.82352449        2       0.17160647      -0.05576047       0.00911546
H        7.02402632       2.06859458       9.85681934        3       0.03697644      -0.06192798      -0.12162571
H        5.70140956       1.89603185      -0.02070773        4       0.19866459       0.06389636      -0.02148990
H        3.01649861       8.86245360       0.83169895        5       0.12297940      -0.02759810      -0.02330805
H        2.23946355      10.55266439      10.20164447        6       0.41600031      -0.26561069       0.12367408
H        3.72594228       9.59520352       9.96352075        7       0.23811352       0.03149097      -0.10000060
H        3.65359400       6.50199500       9.69646476        8       0.53404987       1.17935896       0.21861063
H        3.58218666       2.53547394       8.32126028        9       0.50898832      -0.70724952      -0.53776163
H        1.20387192       3.07968551       9.62048078       10       0.51888198       0.27341178      -0.20372960
H        5.77833041       3.77365111       8.15754753       11      -0.13264395       0.60371065      -0.15307474
H        5.88069194       5.46583086       8.66061506       12       0.56978267       0.86255920       0.64191675
H        5.24339777       7.28213806       7.08906320       13       0.38646281       1.40558434       1.17137313
H        4.85919045       7.98866167       4.77251600       14      -0.00373294       1.79362655      -0.41690713
H        4.31682374       3.90318182       3.62982036       15      -0.08620549      -0.00440951      -0.02340435
H        4.72245636       3.20600387       5.96481981       16       0.21874508       0.53230143      -0.18293428
H        3.74389668       5.71687031       2.03205775       17       0.79600364       0.62681842       0.43838394
H        3.82865598       7.39443275       2.54967146       18      -0.47577479       0.99912822       0.02730482
H        5.95185183       4.74132690       1.09360271       19       0.27185500       0.30769545       0.03448687
H        8.44135490       8.13926456       1.16051231       20       0.90788716       0.88320285      -0.15092024
H        6.00953643       8.67392559       2.45657398       21      -0.58254158       1.56113601       0.77522790
H        5.80266676       8.61854967       9.34647649       22       0.60686016       0.63985455      -0.49326631
H        6.30229401      10.16771084      10.04809575       23       0.34950098      -0.00236070      -0.15603964
H        7.50418154       9.20429708       9.11266672       24       0.25290567      -0.08038741       0.04959927
H        3.11574223       0.98155943       0.70932550       25      -0.03739583      -0.35723376      -0.51821363
H        3.81762052       2.48431703       1.37807272       26       0.00085107       0.04456401       0.03601898
H        2.07861961       2.05240971       1.70050022       27       1.08421028      -0.35389125      -0.13662516
H        7.37329884       8.45614915       5.85254009       28       0.52733576       0.57203346      -0.58540630
H        0.70607024       0.24981057       2.85810099       29       0.15282254       0.17347394      -0.19848262
H        6.57131900       1.56895627       3.18764298       30      -0.49388281       1.20823371      -0.64590198
H        2.19575363       8.14157707       3.58404556       31       0.11382052       0.19475701      -0.15560272
H        2.34298284       8.59262139       5.28450309       32       0.83636177       0.65503943       0.81980228
H        0.96047768       6.11358123       2.93831731       33      -0.13763052      -0.03704958       0.30360794
H        8.29682400       3.94446221       3.61761852       34       0.21955624       0.26779300       0.11685215
H        0.33056306       5.03727527       7.75258547       35       0.24073823       0.45892972      -0.55598623
H        1.26430006       7.23907270       7.09350934       36       0.41296878       1.01277685       0.85763073
H        7.37977667       3.04192220       7.10346371       37       0.40627298       0.18620053      -0.28060287
H        7.26311641       2.58940157       5.42717819       38       0.01336880       0.06294575      -0.25762334
H        2.21172000       2.74172183       4.93060033       39       0.18910910       0.92308819      -0.89895809
H        2.99256857       9.62576467       7.56037141       40       0.09143220       0.07652631      -0.21384513
H        8.13098798       0.73666493       7.82426840       41       1.35975790       0.34797618      -0.82797045
C        7.63393070       2.76461370       0.42958125       42      -0.52590406       0.52002221      -0.93268585
C        6.75851393       1.57793029       0.06343874       43      -0.48471007       0.08966497      -0.07017668
C        1.93337325       8.42707291      10.23975750       44       1.10415971       1.21779907      -0.00401328
C        2.80459073       9.65436339      10.54374086       45      -0.93136561       0.51846945      -0.19995092
C        3.30944738       5.52562446       9.51989087       46      -0.17927769      -1.10067320      -0.84652793
C        3.23400645       3.43642247       8.75031146       47      -0.47760525       0.31311417       0.39398077
C        2.07841938       3.71425682       9.40589419       48      -1.26949775      -0.25180206       0.44632113
C        5.29321975       4.78223800       8.10062387       49      -1.00859034      -1.66772842      -0.24978709
C        5.06455576       5.22381306       6.67407828       50       0.19860739      -0.31137934       0.50020868
C        5.09152419       6.57925890       6.33499370       51      -0.43315592      -1.21443009      -1.00255632
C        4.85355870       6.97961742       5.02796720       52      -0.04889441      -1.81581283       0.12248647
C        4.58428734       6.02773892       4.02593596       53      -0.04120780       0.18083146      -0.22111909
C        4.52584659       4.67373141       4.37199536       54       0.37882724      -0.09606256       0.17754251
C        4.79861290       4.27512028       5.68412967       55      -0.44725195      -0.48545772      -0.05840010
C        4.37108789       6.47702141       2.60138391       56      -0.47368038      -1.56351185      -0.37694550
C        6.35698551       5.74441962       1.27559727       57       0.26059133      -0.63538831      -0.83342934
C        7.58443209       7.55502963       1.32185274       58      -1.14408612      -0.25672007       0.48367500
C        6.40182825       7.84105302       1.97785812       59       1.05774868      -1.43198168      -1.09800613
C        6.08407802      10.31718658       7.91236068       60      -0.29857704      -2.46665788       0.80403620
C        6.46125260       9.52180213       9.16881056       61      -1.25228262      -0.40566814       0.45781159
C        3.53147506       0.87098284       2.79747519       62       0.42002621       1.22080803       0.73266023
C        3.14045026       1.64317848       1.55775344       63      -1.03230023       0.63337541       0.51901478
C        7.70041969       9.20377712       5.09769433       64      -0.51679301       0.26397023      -0.39095235
C        8.88256648      10.27170684       3.50015192       65      -0.82082427      -0.18236633       0.31550646
C        6.95020641       0.72886474       3.68054660       66       0.50729674      -0.80048603       0.40016526
C        1.68354732       8.22388535       4.54361442       67      -1.61214817      -0.62887609      -0.84666187
C        1.17227023       6.86397748       4.96271382       68      -0.17133069       0.10081524      -0.07822009
C        0.78592156       5.88943300       4.00265365       69       1.50754225       2.48394918      -0.78113627
C        8.61668616       4.68713233       4.37204314       70      -1.25882328      -2.16961122       0.18518412
C        8.45017465       4.37928304       5.72885331       71      -0.02067225      -0.37641329       0.23555079
C        0.51699839       5.32250525       6.69345296       72      -0.60252941      -0.76329976       0.63205659
C        1.02128941       6.55854944       6.32277750       73      -0.18467237      -0.66478479      -0.82784086
C        7.95740269       3.03132510       6.15082398       74      -0.34279269      -0.50412238       0.52891135
C        1.93704119       2.04379434       5.66694961       75      -0.15419310      -0.31831741       0.40851900
C        2.66392094      10.51366010       7.02574385       76       0.24024343      -0.38162446       0.26910922
C        0.74609284       0.97909444       7.18985430       77      -1.48311329      -0.41790187       1.05564785
N        2.12784291       5.03342597       9.85409610       78      -0.58549309      -0.31284153       0.50585836
N        3.97405435       4.58345090       8.80643877       79       1.96224797       0.81547070      -0.41564125
N        5.64331843       6.68769247       1.90705672       80      -0.23747303      -0.09295479       0.32520297
N        7.54422791       6.24939963       0.86149151       81      -0.83821231      -0.48474225       0.50153929
N        6.96239662      10.24852838       4.66590019       82       0.08486593      -0.39779049       0.35767257
N        8.84556953       9.20123354       4.36843711       83       1.47276950      -1.29048145       0.85282707
N        0.75945099       2.06266441       6.33360660       84      -0.35657614       0.28287002      -0.24732928
N        2.68040055       1.01474595       6.05387454       85      -0.25510931      -0.46982980       0.56645715
O        7.68866814       4.60765516      10.31122505       86       0.14661843      -0.13816005       0.12028039
O        8.21101326       2.80996436       1.51681902       87       0.60712337      -0.16383535       1.24403334
O        1.97664612       6.66682277       0.38452608       88      -0.56701601      -1.50290728       0.80607063
O        1.31529217       8.34226342       9.17047151       89      -0.48768610       0.04776814      -0.90831816
O        5.51117012       9.62500037       6.99047352       90      -0.43639076      -0.30983752      -0.79906142
O        5.62759012       1.32143314       7.83224178       91       0.86050761       2.92555094       0.23391667
O        4.11651894       1.61088554       3.72474549       92      -0.31863523      -0.98410296      -0.29820582
O        3.98084452       9.84183451       2.92532857       93      -0.20533568      -0.62181032      -0.36132908
94
Lattice="8.2945832 0.0 0.0 0.7272073336926627 10.176818970368277 0.0 0.010770568524594312 0.889421406538611 10.779816629211853" Properties=species:S:1:pos:R:3:spacegroup_kinds:I:1:forces:R:3 spacegroup="P 1" unit_cell=conventional occupancy="_JSON {\"0\": {\"Cu\": 1}, \"1\": {\"Cu\": 1}, \"2\": {\"H\": 1}, \"3\": {\"H\": 1}, \"4\": {\"H\": 1}, \"5\": {\"H\": 1}, \"6\": {\"H\": 1}, \"7\": {\"H\": 1}, \"8\": {\"H\": 1}, \"9\": {\"H\": 1}, \"10\": {\"H\": 1}, \"11\": {\"H\": 1}, \"12\": {\"H\": 1}, \"13\": {\"H\": 1}, \"14\": {\"H\": 1}, \"15\": {\"H\": 1}, \"16\": {\"H\": 1}, \"17\": {\"H\": 1}, \"18\": {\"H\": 1}, \"19\": {\"H\": 1}, \"20\": {\"H\": 1}, \"21\": {\"H\": 1}, \"22\": {\"H\": 1}, \"23\": {\"H\": 1}, \"24\": {\"H\": 1}, \"25\": {\"H\": 1}, \"26\": {\"H\": 1}, \"27\": {\"H\": 1}, \"28\": {\"H\": 1}, \"29\": {\"H\": 1}, \"30\": {\"H\": 1}, \"31\": {\"H\": 1}, \"32\": {\"H\": 1}, \"33\": {\"H\": 1}, \"34\": {\"H\": 1}, \"35\": {\"H\": 1}, \"36\": {\"H\": 1}, \"37\": {\"H\": 1}, \"38\": {\"H\": 1}, \"39\": {\"H\": 1}, \"40\": {\"H\": 1}, \"41\": {\"H\": 1}, \"42\": {\"C\": 1}, \"43\": {\"C\": 1}, \"44\": {\"C\": 1}, \"45\": {\"C\": 1}, \"46\": {\"C\": 1}, \"47\": {\"C\": 1}, \"48\": {\"C\": 1}, \"49\": {\"C\": 1}, \"50\": {\"C\": 1}, \"51\": {\"C\": 1}, \"52\": {\"C\": 1}, \"53\": {\"C\": 1}, \"54\": {\"C\": 1}, \"55\": {\"C\": 1}, \"56\": {\"C\": 1}, \"57\": {\"C\": 1}, \"58\": {\"C\": 1}, \"59\": {\"C\": 1}, \"60\": {\"C\": 1}, \"61\": {\"C\": 1}, \"62\": {\"C\": 1}, \"63\": {\"C\": 1}, \"64\": {\"C\": 1}, \"65\": {\"C\": 1}, \"66\": {\"C\": 1}, \"67\": {\"C\": 1}, \"68\": {\"C\": 1}, \"69\": {\"C\": 1}, \"70\": {\"C\": 1}, \"71\": {\"C\": 1}, \"72\": {\"C\": 1}, \"73\": {\"C\": 1}, \"74\": {\"C\": 1}, \"75\": {\"C\": 1}, \"76\": {\"C\": 1}, \"77\": {\"C\": 1}, \"78\": {\"N\": 1}, \"79\": {\"N\": 1}, \"80\": {\"N\": 1}, \"81\": {\"N\": 1}, \"82\": {\"N\": 1}, \"83\": {\"N\": 1}, \"84\": {\"N\": 1}, \"85\": {\"N\": 1}, \"86\": {\"O\": 1}, \"87\": {\"O\": 1}, \"88\": {\"O\": 1}, \"89\": {\"O\": 1}, \"90\": {\"O\": 1}, \"91\": {\"O\": 1}, \"92\": {\"O\": 1}, \"93\": {\"O\": 1}}" energy=-602.799560546875 free_energy=-602.799560546875 stress="0.0004706500330939889 0.001716653467155993 -0.008047515526413918 0.001716653467155993 -0.03052729368209839 -0.00947566982358694 -0.008047515526413918 -0.00947566982358694 -0.009280483238399029" pbc="T T T"
Cu       0.71622457       6.04815331      10.71278791        0      -0.09048955       0.28711748       0.23310103
Cu       4.47627876       0.48187614       5.33720280        1      -0.06057722       0.53576505      -0.12791522
H        6.76169524       0.76388106       0.82662525        2       0.32335928       0.06676002      -0.07097380
H        6.99704794       2.03869073       9.83557233        3       0.06147299      -0.05313770       0.19582021
H        5.67323431       1.86630117      -0.04678905        4       1.01768136      -0.01020752       0.14733577
H        3.00821665       8.83256447       0.80212092        5       0.25243336      -0.01082213       0.22192800
H        2.23841930      10.52266986      10.17576599        6       0.69519389      -0.46625188       0.15536045
H        3.74902288       9.56546276       9.95198149        7       0.48506120       0.11680640      -0.24706271
H        3.66347569       6.51945347       9.67831159        8       0.30914891      -0.12923409      -0.09844118
H        3.56709595       2.55615134       8.34199278        9       1.76890743      -3.91257977      -2.03300738
H        1.19014138       3.07569920       9.65038555       10       1.30076933       0.57128853      -0.57658398
H        5.75058709       3.75417318       8.18050098       11       0.46649677      -0.06183079      -0.38796461
H        5.90522272       5.43591946       8.63161927       12       0.60715890       0.92698395       0.72735006
H        5.22232684       7.25289975       7.06009777       13       0.43121701       1.57089460       1.35505748
H        4.88765849       7.96560859       4.75091947       14      -0.05128435       1.58858025      -0.39955786
H        4.28860232       3.89554720       3.65313506       15      -0.18167338      -0.50074935      -0.69278646
H        4.69259573       3.21742087       5.97470952       16       0.28068453      -0.04908812      -0.27824265
H        3.72413232       5.71611568       2.06073485       17       0.81523484       0.23313907      -0.11422601
H        3.85568309       7.37848209       2.52731336       18      -0.20489441       0.69840920       0.07552055
H        5.93484234       4.76851051       1.12269473       19       0.58022398       0.07551312      -0.18019310
H        8.47082811       8.11132641       1.13542142       20       0.90054047       0.99801689      -0.12768330
H        6.01031216       8.64488988       2.43029556       21      -0.29750001       1.19581580       0.52466184
H        5.78350403       8.60156818       9.37529031       22       1.09214759       0.96735978      -0.84990424
H        6.32059649      10.13801338      10.01996274       23       0.48172843       0.13788255      -0.13548918
H        7.51927376       9.17435890       9.08615755       24       0.50923491      -0.26109394       0.08149558
H        3.09101746       0.95362415       0.72146788       25       0.05692260      -1.05989099      -1.44915223
H        3.84639822       2.45431868       1.34836335       26      -0.15155040      -0.13393885      -0.02771586
H        2.08380268       2.02277451       1.67544512       27       1.41544485      -0.37055600      -0.03953549
H        7.34511131       8.45539498       5.88239262       28       1.03688955       1.20532942      -1.42113531
H        0.73408422       0.22176337       2.83116518       29       0.21801092       0.17164487      -0.25539345
H        6.59973916       1.53899540       3.15794509       30      -0.61034089       1.41039133      -0.73954666
H        2.19711679       8.11204529       3.55532226       31       0.37484956       0.20627165      -0.33154511
H        2.31342980       8.56606784       5.25745414       32       1.67973828       1.02596331       1.55215514
H        0.97265709       6.08469286       2.90845495       33      -0.12352213      -0.00544900       0.31516185
H        8.26742353       3.93723081       3.64591291       34       0.34295800       0.30762771      -0.29802650
H        0.30074888       5.00729932       7.76102629       35       0.55733728       0.76055241      -1.59646440
H        1.25298433       7.20907899       7.06435418       36       0.53793824       1.29007709       1.10941851
H        7.35929645       3.06179491       7.12222765       37       1.35207915       0.12974885      -1.42849827
H        7.27073529       2.59312332       5.44656114       38      -0.28517815      -0.17660502      -0.74176794
H        2.23483535       2.75649117       4.90502023       39      -0.11586089       0.28891015      -0.19391812
H        2.96563012       9.64563351       7.58743542       40       0.34632605      -0.08366911      -0.16779728
H        8.10272207       0.71827789       7.85356794       41       2.48587298       0.81760216      -1.63370645
C        7.65407441       2.73521371       0.40190633       42      -0.66760069       1.47420406      -1.11198092
C        6.76140559       1.54824320       0.06108673       43      -1.22339654       0.39075243      -0.77052784
C        1.96094613       8.40075551      10.21310317       44       0.51719457       2.19942999      -1.45166636
C        2.82882795       9.62444863      10.51639041       45      -1.44004810       0.95186639      -0.51861018
C        3.33594963       5.50034241       9.49137305       46       0.40429139       0.58783901      -0.66554606
C        3.25717105       3.40739886       8.72088167       47      -1.97782063       3.39334393       1.99118447
C        2.10537331       3.68471275       9.37632393       48      -2.25034332       0.27761567       1.16212523
C        5.32022090       4.75327717       8.07424809       49      -1.68343866      -1.14402056      -0.16793898
C        5.09418932       5.19704899       6.64467607       50       0.31207734      -0.42840010       0.63593578
C        5.11188504       6.55016059       6.30576023       51      -0.42317605      -1.20254350      -1.14655447
C        4.87898109       6.94972557       4.99832921       52       0.02120149      -1.51053810       0.17032658
C        4.61020709       5.99966016       3.99621628       53       0.17281517       0.73089749      -0.28605568
C        4.55526576       4.66268035       4.34582021       54       0.29530993      -0.41362068       0.81272221
C        4.82759134       4.25240021       5.65542702       55      -0.52747631       0.12298688       0.08568940
C        4.40006934       6.44805836       2.57146624       56      -0.83452207      -0.78210598       0.15552661
C        6.38606654       5.75637525       1.27145889       57       0.59006315      -2.31483030      -1.76206827
C        7.61407370       7.52734060       1.29293617       58      -1.07507300       1.22662497       0.91608673
C        6.43091027       7.81184431       1.94863450       59       0.47390208      -0.35976529      -0.49722797
C        6.11088442      10.29022234       7.90067703       60      -0.12853730      -1.43225670       0.77163166
C        6.48738369       9.49490522       9.14187112       61      -2.03242660      -0.81242675       0.94475365
C        3.56098253       0.84738253       2.79582096       62      -0.05800232       1.22087717       0.54076594
C        3.16058515       1.61351897       1.53043162       63      -1.11133802       1.20029581       1.76914763
C        7.71025979       9.20496785       5.07821943       64       0.12089032      -1.56203175       0.66880953
C        8.91194250      10.24241571       3.47099339       65      -1.23545408      -0.02725402       0.40971863
C        6.97721951       0.70604532       3.65133012       66       0.71891284      -1.16118181       0.63066274
C        1.70315178       8.19454012       4.51444042       67      -2.44774938      -0.91251445      -1.30272436
C        1.20219913       6.83457055       4.93322782       68      -0.13992724       0.21856645       0.13698514
C        0.81367792       5.85955707       3.97542317       69       2.15821815       4.24006176      -1.44725788
C        8.64503138       4.70066308       4.34429433       70      -2.34719992      -4.70026970       1.13409233
C        8.47103290       4.35164152       5.70158830       71       0.46410975       0.90886080       0.06877981
C        0.53741461       5.29663140       6.66365631       72      -0.90627486      -1.13617265       1.71796453
C        1.04978250       6.52861456       6.29446836       73      -0.32619989      -0.79157937      -1.14395356
C        7.98125995       3.04160170       6.12221166       74      -0.90701866      -1.46001244       2.21606779
C        1.96384259       2.04934775       5.67100286       75       0.44366837       0.30954555      -1.08332682
C        2.69193784      10.53983652       7.04346875       76       0.46461940      -0.46521270      -0.16930130
C        0.77520200       1.00144591       7.18914229       77      -2.52039814      -1.37338126       2.04275179
N        2.15731379       5.04045908       9.82448349       78      -0.99102581      -1.66868103       0.33073068
N        3.98822100       4.55469724       8.77731205       79       2.45744777       1.25462162      -0.56118155
N        5.66830612       6.65915833       1.87831913       80      -0.54276800       1.19504571       0.91622978
N        7.57163163       6.26868336       0.83316556       81      -0.87239295      -2.39440346       0.08177111
N        6.99096814      10.22231235       4.65469626       82      -0.27372479       0.81417656      -0.45997608
N        8.87271544       9.17648465       4.33896975       83       0.84994042      -1.33426058       1.17771375
N        0.78661923       2.03337788       6.30391761       84      -1.62772465       1.80783868      -0.14788772
N        2.70851363       1.01835634       6.02694658       85      -0.23825641      -0.93968475       1.44433928
O        7.71643941       4.63522951      10.29379469       86      -0.15210892      -1.53489065       0.67541230
O        8.22211971       2.78099929       1.49191434       87       0.65101159      -0.23496124       1.08762407
O        2.00585229       6.68616132       0.36083067       88      -0.64728773      -2.97213030       1.86461866
O        1.30575436       8.31594709       9.14911461       89      -0.01291390       0.07225741      -0.35832882
O        5.54074301       9.64556071       6.96596002       90      -0.84755534      -1.25373280      -1.21412027
O        5.65130018       1.30164148       7.82508857       91       0.97303665       2.81868839       0.53033686
O        4.14632940       1.63027338       3.70210369       92      -0.45510697      -1.75099766      -0.50069833
O        3.96955923       9.81834626       2.95340833       93       0.22538620       0.35811457      -0.37370345
94
Lattice="8.2945832 0.0 0.0 0.7272073336926627 10.176818970368277 0.0 0.010770568524594312 0.889421406538611 10.779816629211853" Properties=species:S:1:pos:R:3:spacegroup_kinds:I:1:forces:R:3 spacegroup="P 1" unit_cell=conventional occupancy="_JSON {\"0\": {\"Cu\": 1}, \"1\": {\"Cu\": 1}, \"2\": {\"H\": 1}, \"3\": {\"H\": 1}, \"4\": {\"H\": 1}, \"5\": {\"H\": 1}, \"6\": {\"H\": 1}, \"7\": {\"H\": 1}, \"8\": {\"H\": 1}, \"9\": {\"H\": 1}, \"10\": {\"H\": 1}, \"11\": {\"H\": 1}, \"12\": {\"H\": 1}, \"13\": {\"H\": 1}, \"14\": {\"H\": 1}, \"15\": {\"H\": 1}, \"16\": {\"H\": 1}, \"17\": {\"H\": 1}, \"18\": {\"H\": 1}, \"19\": {\"H\": 1}, \"20\": {\"H\": 1}, \"21\": {\"H\": 1}, \"22\": {\"H\": 1}, \"23\": {\"H\": 1}, \"24\": {\"H\": 1}, \"25\": {\"H\": 1}, \"26\": {\"H\": 1}, \"27\": {\"H\": 1}, \"28\": {\"H\": 1}, \"29\": {\"H\": 1}, \"30\": {\"H\": 1}, \"31\": {\"H\": 1}, \"32\": {\"H\": 1}, \"33\": {\"H\": 1}, \"34\": {\"H\": 1}, \"35\": {\"H\": 1}, \"36\": {\"H\": 1}, \"37\": {\"H\": 1}, \"38\": {\"H\": 1}, \"39\": {\"H\": 1}, \"40\": {\"H\": 1}, \"41\": {\"H\": 1}, \"42\": {\"C\": 1}, \"43\": {\"C\": 1}, \"44\": {\"C\": 1}, \"45\": {\"C\": 1}, \"46\": {\"C\": 1}, \"47\": {\"C\": 1}, \"48\": {\"C\": 1}, \"49\": {\"C\": 1}, \"50\": {\"C\": 1}, \"51\": {\"C\": 1}, \"52\": {\"C\": 1}, \"53\": {\"C\": 1}, \"54\": {\"C\": 1}, \"55\": {\"C\": 1}, \"56\": {\"C\": 1}, \"57\": {\"C\": 1}, \"58\": {\"C\": 1}, \"59\": {\"C\": 1}, \"60\": {\"C\": 1}, \"61\": {\"C\": 1}, \"62\": {\"C\": 1}, \"63\": {\"C\": 1}, \"64\": {\"C\": 1}, \"65\": {\"C\": 1}, \"66\": {\"C\": 1}, \"67\": {\"C\": 1}, \"68\": {\"C\": 1}, \"69\": {\"C\": 1}, \"70\": {\"C\": 1}, \"71\": {\"C\": 1}, \"72\": {\"C\": 1}, \"73\": {\"C\": 1}, \"74\": {\"C\": 1}, \"75\": {\"C\": 1}, \"76\": {\"C\": 1}, \"77\": {\"C\": 1}, \"78\": {\"N\": 1}, \"79\": {\"N\": 1}, \"80\": {\"N\": 1}, \"81\": {\"N\": 1}, \"82\": {\"N\": 1}, \"83\": {\"N\": 1}, \"84\": {\"N\": 1}, \"85\": {\"N\": 1}, \"86\": {\"O\": 1}, \"87\": {\"O\": 1}, \"88\": {\"O\": 1}, \"89\": {\"O\": 1}, \"90\": {\"O\": 1}, \"91\": {\"O\": 1}, \"92\": {\"O\": 1}, \"93\": {\"O\": 1}}" energy=-601.1063232421875 free_energy=-601.1063232421875 stress="0.0008951093186624348 0.0018726312555372715 -0.01265799906104803 0.0018726312555372715 -0.03578418493270874 -0.014642691239714622 -0.01265799906104803 -0.014642691239714622 -0.013299008831381798" pbc="T T T"
Cu       0.74352256       6.01906145      10.68425339        0      -0.10296457       0.31599677       0.27248093
Cu       4.50545735       0.45329309       5.30884442        1      -0.04656875       0.58861911      -0.17243436
H        6.75258925       0.73514433       0.83831130        2       0.43997836       0.57824469      -0.68860501
H        7.02333662       2.00950592       9.81396135        3       0.00284819      -0.09180427       0.25744113
H        5.65431017       1.83677698      -0.07103238        4       1.77560949      -0.17317462       0.12350693
H        3.01119592       8.80354909       0.78055623        5       0.40065140       0.04188463       0.65348655
H        2.23049814      10.49568081      10.14767865        6       1.00328135      -0.74058968       0.34223193
H        3.75727396       9.53958752       9.92502048        7       0.68678892       0.21612217      -0.24376434
H        3.68118513       6.50249729       9.65914281        8       0.28680304      -0.44325608      -0.18528214
H        3.54342922       2.52879970       8.31286624        9       2.03806400      -4.70426130      -2.45185447
H        1.17813912       3.07605289       9.65937053       10       1.92589676       0.68674266      -0.89974356
H        5.72132503       3.72562486       8.18699330       11       1.00463653      -0.57503605      -0.51362765