62
Lattice="5.71395288 0.0 0.0 -1.0927011252185308 5.608693544416201 0.0 0.0006528327302363195 0.0005353408660162278 20.696948482780545" Properties=species:S:1:pos:R:3:spacegroup_kinds:I:1:forces:R:3 spacegroup="P 1" unit_cell=conventional occupancy="_JSON {\"0\": {\"Cu\": 1}, \"1\": {\"Cu\": 1}, \"2\": {\"H\": 1}, \"3\": {\"H\": 1}, \"4\": {\"H\": 1}, \"5\": {\"H\": 1}, \"6\": {\"H\": 1}, \"7\": {\"H\": 1}, \"8\": {\"H\": 1}, \"9\": {\"H\": 1}, \"10\": {\"H\": 1}, \"11\": {\"H\": 1}, \"12\": {\"H\": 1}, \"13\": {\"H\": 1}, \"14\": {\"H\": 1}, \"15\": {\"H\": 1}, \"16\": {\"H\": 1}, \"17\": {\"H\": 1}, \"18\": {\"H\": 1}, \"19\": {\"H\": 1}, \"20\": {\"C\": 1}, \"21\": {\"C\": 1}, \"22\": {\"C\": 1}, \"23\": {\"C\": 1}, \"24\": {\"C\": 1}, \"25\": {\"C\": 1}, \"26\": {\"C\": 1}, \"27\": {\"C\": 1}, \"28\": {\"C\": 1}, \"29\": {\"C\": 1}, \"30\": {\"C\": 1}, \"31\": {\"C\": 1}, \"32\": {\"C\": 1}, \"33\": {\"C\": 1}, \"34\": {\"C\": 1}, \"35\": {\"C\": 1}, \"36\": {\"C\": 1}, \"37\": {\"C\": 1}, \"38\": {\"C\": 1}, \"39\": {\"C\": 1}, \"40\": {\"C\": 1}, \"41\": {\"C\": 1}, \"42\": {\"C\": 1}, \"43\": {\"C\": 1}, \"44\": {\"C\": 1}, \"45\": {\"C\": 1}, \"46\": {\"C\": 1}, \"47\": {\"C\": 1}, \"48\": {\"S\": 1}, \"49\": {\"S\": 1}, \"50\": {\"N\": 1}, \"51\": {\"N\": 1}, \"52\": {\"N\": 1}, \"53\": {\"N\": 1}, \"54\": {\"N\": 1}, \"55\": {\"N\": 1}, \"56\": {\"N\": 1}, \"57\": {\"N\": 1}, \"58\": {\"N\": 1}, \"59\": {\"N\": 1}, \"60\": {\"N\": 1}, \"61\": {\"N\": 1}}" energy=-435.51416015625 free_energy=-435.51416015625 stress="-0.007558149751275778 0.00782026071101427 -0.004373124334961176 0.00782026071101427 -0.004575975704938173 -0.007691631559282541 -0.004373124334961176 -0.007691631559282541 -0.009118824265897274" pbc="T T T"
Cu       2.80906511       3.45347735      15.55016094        0      -0.58684844       0.13373311      -0.10976481
Cu       2.82611762       3.42346544       5.19857181        1       0.48970336      -0.41992572      -0.10159827
H        4.52849700       5.28800792      14.22282756        2       0.12147072      -0.24020818       0.14127065
H        4.34854808       5.46528457       6.47411713        3      -0.17102942      -0.01996189      -0.04427834
H        4.30454837       5.46463219       3.87857066        4       0.26788992      -0.17603882       0.43757159
H        4.55126891       5.30209695      16.79537413        5       0.32152158      -0.83525586       0.51890999
H        0.75507020       5.29097572      12.64586769        6      -0.05028308      -0.07592005      -0.10175742
H        5.02729791       1.78196575       8.04788252        7      -0.09958329      -0.18322010       0.00865225
H        5.03078588       1.77568226       2.32907859        8      -0.45649937      -0.78478795       0.00967005
H        0.78106634       5.26911599      18.40620820        9      -0.58959997      -0.62472010      -0.00791539
H        5.44901532       1.19984913      11.72895004       10       0.06987218      -0.69161236      -0.21646816
H        0.11346554       5.60282993       8.97558613       11      -0.11232708      -0.29668421      -0.05980802
H        0.13126978       5.57870819       1.36899491       12      -0.25764087      -0.04760064      -0.12630406
H        5.47203639       1.16881202      19.31724874       13      -0.16161661       0.76262516      -0.34112146
H        3.63255059       1.34602365      13.41893216       14      -0.18379113      -0.20764573      -0.09909885
H        0.65416342       3.77674784       7.32572072       15      -0.19230673      -0.00638813      -0.08927938
H        0.63019284       3.81168849       3.02896154       16      -0.19694087      -0.36853608       0.17937762
H        3.62035239       1.36172054      17.67046522       17      -0.56345814      -0.88011712      -0.13944225
H        4.12553640       5.02515209      10.35262826       18       0.14863291       0.09568179      -0.04067416
H        4.13350905       5.03248463      -0.01943181       19      -0.16299340      -0.34130335       0.17282665
C        2.29150578       0.46345752      15.50405943       20      -2.07879996       2.44704914       0.10258775
C        0.05175121       2.33742336       5.15199613       21      -0.05174035      -0.10785656       0.06775658
C        4.81713150       4.37377698      13.69457045       22      -0.90397161       0.35549414       0.04620855
C        3.41326380       5.56262087       7.02958873       23      -0.40944675      -1.28028166      -0.73561245
C        3.37670359       5.52444138       3.33611431       24       0.96178228       0.76630199      -0.18585908
C        4.79791597       4.36658133      17.37333282       25       0.44642064       2.23482656      -0.35432768
C        0.13967610       4.40506505      12.78702360       26      -0.35778862      -1.51955926      -0.35041296
C        4.29469751       0.98790788       7.88582330       27      -1.38477838       0.08307937       1.27859378
C        4.29388775       0.94740229       2.44924736       28       0.01899961       0.86646855      -0.58827150
C        0.13675840       4.36801040      18.28205017       29       0.47650144       0.68498063      -0.09366386
C        0.38678614       3.19296326      12.04367072       30       1.50055289       1.75474739       0.14005400
C        3.05391371       1.00255334       8.65608748       31       1.75314820      -0.08401933      -1.42130995
C        3.09588095       0.99397757       1.71003615       32      -0.13772745       0.57092196       0.09104776
C        0.43876979       3.20049038      18.99978561       33      -0.04547730       1.24191523      -0.49060330
C        5.30131322       2.09732388      12.28659583       34      -0.70647407       0.62832505       0.33207703
C        1.04661364       5.57155065       8.42151714       35       0.21514335       1.21643305       0.65764034
C        1.06240156       5.58456008       1.91242775       36       0.67351300      -0.09500647       0.36157355
C        5.29663187       2.13388003      18.78086348       37      -0.10650562      -2.11190891       0.52369452
C        4.24836734       2.21350495      13.21665272       38       0.57792592      -1.72735190      -0.98578358
C        1.33979905       4.60357797       7.48160060       39      -0.50031394      -0.53159273       0.42429563
C        1.35740323       4.58801605       2.86489397       40      -1.87971067       0.85724360      -1.85573959
C        4.27187126       2.17414524      17.85023692       41       0.64591599       2.14029765      -0.17311886
C        1.58925795       3.16527224      11.11250767       42      -1.38057578       1.64642382       1.76034927
C        2.85886682       2.12042135       9.55155223       43      -0.68572503       1.41503346       1.25433445
C        2.83968149       2.16171515       0.81980026       44       0.05421454      -0.85657489      -0.32920659
C        1.59200763       3.21357867      19.89634138       45      -0.20419449      -1.59255695       1.18266940
C        3.44157503       4.17257421      10.34753207       46       0.61982965       1.00485086       0.03989813
C        3.42966679       4.17846368       0.00330010       47       1.74325395       0.06872493       0.72590429
S        1.24729748       1.76915981      15.54733499       48       0.33388671      -0.27509123      -0.07824929
S        1.49134637       1.60449382       5.20287871       49       0.78512043      -0.54568326      -0.02518828
N        1.91074904       5.16589038      15.51248676       50       2.23504019      -2.37751865       0.00174568
N        4.71847777       2.86264272       5.14510628       51      -1.29913187       0.97350544      -0.04217957
N        3.99262742       3.28555777      13.91401542       52       1.05249953       2.07765913       0.24825296
N        2.47115579       4.56388889       6.79510529       53       1.51018810       1.26869655       0.03025562
N        2.45790845       4.59832718       3.55414497       54       1.02249908      -0.97806430       1.31426346
N        4.03894027       3.32671565      17.11527774       55      -0.29285955      -2.13559961       0.75745296
N        1.72341854       2.09519843      10.37686546       56       2.12113690      -0.65146512      -1.89062202
N        1.76346302       2.13446171       0.02759509       57      -0.70606703       0.43248978      -0.71029001
N        2.40204964       4.28281466      11.13858058       58      -1.38440824      -1.28542733       0.33134365
N        3.76034330       3.18162363       9.54480917       59      -1.12167048      -2.61870742      -0.63590431
N        3.74756832       3.13454413       0.78231918       60       0.32088128       0.79933202       0.27018610
N        2.40158389       4.26982810      19.91008876       61      -1.06526172       0.44735342      -0.98661101
62
Lattice="5.71395288 0.0 0.0 -1.0927011252185308 5.608693544416201 0.0 0.0006528327302363195 0.0005353408660162278 20.696948482780545" Properties=species:S:1:pos:R:3:spacegroup_kinds:I:1:forces:R:3 spacegroup="P 1" unit_cell=conventional occupancy="_JSON {\"0\": {\"Cu\": 1}, \"1\": {\"Cu\": 1}, \"2\": {\"H\": 1}, \"3\": {\"H\": 1}, \"4\": {\"H\": 1}, \"5\": {\"H\": 1}, \"6\": {\"H\": 1}, \"7\": {\"H\": 1}, \"8\": {\"H\": 1}, \"9\": {\"H\": 1}, \"10\": {\"H\": 1}, \"11\": {\"H\": 1}, \"12\": {\"H\": 1}, \"13\": {\"H\": 1}, \"14\": {\"H\": 1}, \"15\": {\"H\": 1}, \"16\": {\"H\": 1}, \"17\": {\"H\": 1}, \"18\": {\"H\": 1}, \"19\": {\"H\": 1}, \"20\": {\"C\": 1}, \"21\": {\"C\": 1}, \"22\": {\"C\": 1}, \"23\": {\"C\": 1}, \"24\": {\"C\": 1}, \"25\": {\"C\": 1}, \"26\": {\"C\": 1}, \"27\": {\"C\": 1}, \"28\": {\"C\": 1}, \"29\": {\"C\": 1}, \"30\": {\"C\": 1}, \"31\": {\"C\": 1}, \"32\": {\"C\": 1}, \"33\": {\"C\": 1}, \"34\": {\"C\": 1}, \"35\": {\"C\": 1}, \"36\": {\"C\": 1}, \"37\": {\"C\": 1}, \"38\": {\"C\": 1}, \"39\": {\"C\": 1}, \"40\": {\"C\": 1}, \"41\": {\"C\": 1}, \"42\": {\"C\": 1}, \"43\": {\"C\": 1}, \"44\": {\"C\": 1}, \"45\": {\"C\": 1}, \"46\": {\"C\": 1}, \"47\": {\"C\": 1}, \"48\": {\"S\": 1}, \"49\": {\"S\": 1}, \"50\": {\"N\": 1}, \"51\": {\"N\": 1}, \"52\": {\"N\": 1}, \"53\": {\"N\": 1}, \"54\": {\"N\": 1}, \"55\": {\"N\": 1}, \"56\": {\"N\": 1}, \"57\": {\"N\": 1}, \"58\": {\"N\": 1}, \"59\": {\"N\": 1}, \"60\": {\"N\": 1}, \"61\": {\"N\": 1}}" energy=-434.562744140625 free_energy=-434.562744140625 stress="-0.006631079129874706 0.008310342207551003 -0.002905394183471799 0.008310342207551003 -0.0006530397804453969 -0.007743095047771931 -0.002905394183471799 -0.007743095047771931 -0.009624787606298923" pbc="T T T"
Cu       2.78122535       3.46138408      15.52183093        0      -0.44569880       0.10922541      -0.02618868
Cu       2.84466664       3.42923822       5.17763363        1       0.48039860      -0.40940529       0.00554812
H        4.50656355       5.30340127      14.20576319        2       0.09463175      -0.93335187       0.03032249
H        4.33631872       5.46174029       6.50068126        3       1.47884870      -0.34340647      -1.09593940
H        4.27889143       5.45113850       3.90020431        4      -0.18552317       0.08133981      -0.08284576
H        4.54526666       5.30022574      16.77685021        5       0.15469596      -0.47339758       0.28743091
H        0.77624545       5.31171715      12.66594775        6      -0.72274917      -0.88274717      -0.05470163
H        5.03577728       1.79123762       8.05667897        7      -0.70432532      -0.81507862      -0.27455485
H        5.03230809       1.78662968       2.35060210        8      -0.99105179      -1.34145832      -0.13305527
H        0.76300410       5.27770002      18.42191362        9      -0.22528335      -0.38443169       0.01443994
H        5.46135169       1.21579462      11.75181040       10       0.22282244      -1.82638121      -0.86618602
H        0.13545836       5.58317241       8.97596528       11      -0.94482458      -0.15473306       0.52091271
H        0.13399948       5.59446684       1.39321339       12      -1.82614017      -0.18995115      -1.02055085
H        5.44678907       1.18543565      19.32426122       13       0.08698200       0.24971890       0.00466894
H        3.61996293       1.33606999      13.40992430       14      -0.58255649      -0.73182636       0.19166392
H        0.65619113       3.79272569       7.29602956       15      -0.34482044      -0.00814894       0.05637637
H        0.64994642       3.81478878       3.02616160       16      -0.47902396      -0.71315426       0.18156418
H        3.62174037       1.34114204      17.66966499       17      -0.13149481      -0.36099261      -0.01607923
H        4.11718466       5.05131344      10.34380494       18       0.39996585       0.31395665      -0.02414324
H        4.14661451       5.05588586      -0.01969420       19      -0.09618516      -0.47155553       0.43045813
C        2.28938527       0.46494051      15.47965156       20      -3.02900410       3.60461521       0.16297135
C        0.07925205       2.32312564       5.15126905       21      -4.24939632       1.97657108      -0.02916896
C        4.79040531       4.34879155      13.69837894       22       0.25449288       2.11912799      -0.39197302
C        3.43287595       5.53731752       7.00866711       23      -2.80704427      -0.58473706       0.83218032
C        3.35686625       5.52212743       3.31056106       24       1.64485753       0.44155473       1.01181364
C        4.77723115       4.37547906      17.34593055       25       1.74638546       2.07234240       1.00877416
C        0.11862465       4.41320123      12.79171537       26       0.25580561      -1.79222393      -0.79701388
C        4.28044075       0.98297354       7.85834545       27      -0.03731293       0.22479215       1.02427161
C        4.26988726       0.93538624       2.42500960       28       1.28331280       1.72335982      -0.40973645
C        0.14906394       4.37691331      18.27906800       29      -1.02952969      -0.06945832      -1.00626719
C        0.35931675       3.16600655      12.03766597       30       2.57496405       3.49747944       0.25232497
C        3.06945924       0.99515941       8.63413748       31       0.93086636       0.67519367      -0.67871469
C        3.09223587       1.00031742       1.69561759       32      -1.37136507      -0.78489709       0.13122645
C        0.41818659       3.18385656      18.97749363       33       2.05513811       2.98251915       0.37763172
C        5.29768145       2.08522899      12.29081875       34      -1.54345179       0.77627563       1.26314223
C        1.04384097       5.57636238       8.43559576       35       1.24861455       0.88003099      -0.23872270
C        1.03536846       5.56050364       1.89535786       36       3.43629098       0.82624733       1.12025845
C        5.30081597       2.13449619      18.79488315       37      -1.17030144      -2.68698835      -0.26978901
C        4.23848898       2.18361643      13.24488680       38       1.81675982      -1.73415136      -2.50241613
C        1.33554811       4.61524204       7.48667026       39      -0.42727700      -0.75893295       0.14400610
C        1.37396387       4.57339587       2.83675280       40      -2.61204290       0.96412528      -1.63042307
C        4.29156573       2.16061650      17.85593429       41      -0.46288884       2.37280035      -0.71416718
C        1.60718305       3.14588349      11.10285955       42      -2.05887580       2.36330271       2.59128428
C        2.86037106       2.14279041       9.53113071       43      -0.23989742       0.58879900       1.13169646
C        2.82765313       2.13270170       0.80300697       44       1.07906961       0.60612357       0.23702960
C        1.60830514       3.19891532      19.87348688       45      -0.02930403      -0.64812964       1.82923627
C        3.44769168       4.20173441      10.35013225       46       0.66872430      -0.26426774      -0.94389820
C        3.45278084       4.19139015       0.03259917       47       0.98434472      -0.18589258       0.29062775
S        1.23602141       1.77956560      15.54228001       48       0.47157225      -0.49660051      -0.11754672
S        1.51111125       1.62989569       5.21091542       49       1.12274611      -0.86608529      -0.01387168
N        1.91782691       5.18878129      15.48928980       50       3.03641415      -3.35074091       0.00775852
N        4.69869713       2.86900996       5.13128762       51       2.56637001      -0.92453897       0.00274380
N        4.01670858       3.26676728      13.88735044       52      -0.63772321       2.04117990       1.76017356
N        2.46044277       4.54955428       6.78646025       53       1.95407820       1.65146840       0.11664021
N        2.43451515       4.61743495       3.58188738       54       1.22583795      -0.94634670       0.69134337
N        4.01898772       3.34195784      17.12197261       55      -0.18552724      -3.09463358       0.74244499
N        1.75157762       2.07778271      10.40619241       56       2.18433547      -1.19278336      -2.67751884
N        1.75009609       2.12151853       0.05333233       57      -1.22481668       0.98595774      -2.15941811
N        2.41240029       4.28023622      11.11977928       58      -2.06495047      -1.10055375       1.02200055
N        3.74629711       3.19428291       9.51906106       59      -0.95576799      -1.80980682      -0.31301361
N        3.74157885       3.13467999       0.78803816       60       0.33162582       0.12560201       0.37269884
N        2.42359761       4.29316912      19.92775781       61      -1.97479784      -0.92192024      -1.35976112
62
Lattice="5.71395288 0.0 0.0 -1.0927011252185308 5.608693544416201 0.0 0.0006528327302363195 0.0005353408660162278 20.696948482780545" Properties=species:S:1:pos:R:3:spacegroup_kinds:I:1:forces:R:3 spacegroup="P 1" unit_cell=conventional occupancy="_JSON {\"0\": {\"Cu\": 1}, \"1\": {\"Cu\": 1}, \"2\": {\"H\": 1}, \"3\": {\"H\": 1}, \"4\": {\"H\": 1}, \"5\": {\"H\": 1}, \"6\": {\"H\": 1}, \"7\": {\"H\": 1}, \"8\": {\"H\": 1}, \"9\": {\"H\": 1}, \"10\": {\"H\": 1}, \"11\": {\"H\": 1}, \"12\": {\"H\": 1}, \"13\": {\"H\": 1}, \"14\": {\"H\": 1}, \"15\": {\"H\": 1}, \"16\": {\"H\": 1}, \"17\": {\"H\": 1}, \"18\": {\"H\": 1}, \"19\": {\"H\": 1}, \"20\": {\"C\": 1}, \"21\": {\"C\": 1}, \"22\": {\"C\": 1}, \"23\": {\"C\": 1}, \"24\": {\"C\": 1}, \"25\": {\"C\": 1}, \"26\": {\"C\": 1}, \"27\": {\"C\": 1}, \"28\": {\"C\": 1}, \"29\": {\"C\": 1}, \"30\": {\"C\": 1}, \"31\": {\"C\": 1}, \"32\": {\"C\": 1}, \"33\": {\"C\": 1}, \"34\": {\"C\": 1}, \"35\": {\"C\": 1}, \"36\": {\"C\": 1}, \"37\": {\"C\": 1}, \"38\": {\"C\": 1}, \"39\": {\"C\": 1}, \"40\": {\"C\": 1}, \"41\": {\"C\": 1}, \"42\": {\"C\": 1}, \"43\": {\"C\": 1}, \"44\": {\"C\": 1}, \"45\": {\"C\": 1}, \"46\": {\"C\": 1}, \"47\": {\"C\": 1}, \"48\": {\"S\": 1}, \"49\": {\"S\": 1}, \"50\": {\"N\": 1}, \"51\": {\"N\": 1}, \"52\": {\"N\": 1}, \"53\": {\"N\": 1}, \"54\": {\"N\": 1}, \"55\": {\"N\": 1}, \"56\": {\"N\": 1}, \"57\": {\"N\": 1}, \"58\": {\"N\": 1}, \"59\": {\"N\": 1}, \"60\": {\"N\": 1}, \"61\": {\"N\": 1}}" energy=-433.8609619140625 free_energy=-433.8609619140625 stress="-0.011217817664146423 0.0036740293726325035 -0.0010564454132691026 0.0036740293726325035 -0.0015119868330657482 -0.006827544886618853 -0.0010564454132691026 -0.006827544886618853 -0.006891314405947924" pbc="T T T"
Cu       2.79499537       3.45175629      15.50983526        0      -0.40792224       0.27220747       0.04943303
Cu       2.85986744       3.40671133       5.16418874        1       0.27460599      -0.38161618       0.09645212
H        4.50044135       5.32127977      14.18493202        2      -0.23621584      -0.28213638       0.60228753
H        4.34304106       5.46719536       6.49342759        3       1.77041042      -0.45207912      -1.34000444
H        4.27467042       5.43617365       3.91253136        4      -0.60169834       0.23277648      -0.22827068
H        4.51665120       5.28505768      16.78526406        5       0.34146559      -0.43937761       0.23269345
H        0.77407440       5.33827916      12.67431445        6      -1.01106453      -1.31206834      -0.15850134
H        5.02830194       1.79536205       8.02908397        7      -0.21466222      -0.39209294      -0.04194841
H        5.06126288       1.79073943       2.34493514        8      -1.38023627      -1.62969136      -0.06528339
H        0.77729425       5.27997148      18.42004626        9      -0.69978172      -0.64802545      -0.15905318
H        5.48033899       1.19921924      11.72373375       10      -0.00821552      -0.81354839      -0.19591574
H        0.12653744       5.60813260       8.98318251       11       0.30882180      -0.22769250      -0.31081024
H        0.12380127       5.58583355       1.37528453       12      -0.51995987      -0.18627277      -0.21092524
H        5.45963748       1.19054264      19.34521693       13       0.12747110       0.34347662      -0.26778167
H        3.60478968       1.35405696      13.43680132       14      -0.36053005      -0.46182495      -0.07608135
H        0.66949460       3.81526776       7.31702654       15      -1.09727216      -0.90461028      -0.16358618
H        0.67500041       3.84127064       3.04695718       16      -1.39690697      -1.57552266       0.11429366
H        3.61222964       1.32160542      17.65265764       17       0.09729411       0.17453805       0.16367003
H        4.08791606       5.03393005      10.36808192       18       0.83895218       0.74200106      -0.06849317
H        4.14388733       5.05923905      -0.00223293       19       0.29573196       0.14748712       0.18362808
C        2.27900935       0.48544068      15.49930013       20      -2.52967548       2.97991037       0.13417953
C        0.05328045       2.33693176       5.14678304       21      -2.03888416       0.81946111       0.01587355
C        4.77021393       4.37396258      13.72416918       22       1.99698663       1.48825061      -2.49637556
C        3.45080656       5.54146609       7.00339176       23      -3.74392986      -0.68315971       1.06761920
C        3.32906690       5.53043757       3.33723782       24       1.95242465       0.76414490       0.27596056
C        4.78174536       4.35933769      17.34228527       25       2.30893350       4.20255041       1.00536489
C        0.09504601       4.42729288      12.77132102       26       0.29987454      -1.65253568      -0.05355782
C        4.30469914       0.98431534       7.85903327       27      -0.92416847      -0.56155258       0.71453291
C        4.25979697       0.94619650       2.41895751       28       1.60916424       1.47845626       0.10106809
C        0.12368960       4.38608547      18.26706858       29       0.85484946       0.08935538       0.24758917
C        0.37083287       3.13903308      12.02447123       30       3.03696513       5.89283848       0.44612640
C        3.06552219       0.98458810       8.62566004       31       2.27493286       1.87757564      -0.54170090
C        3.08393407       1.02890125       1.66657034       32      -0.85149372      -1.43619633       1.24659193
C        0.44172207       3.20762222      18.99699670       33      -0.65344572       1.73872566      -1.59230804
C        5.31127596       2.10131717      12.26763009       34      -2.90303516      -1.88451409       1.14876914
C        1.06581980       5.59234889       8.40836993       35      -0.99145144       0.28001624       0.91901791
C        1.05259477       5.57753589       1.90669159       36       1.64756393       0.56787044      -0.17791677
C        5.32754633       2.12373751      18.77236152       37      -1.20774221      -1.79601598       0.19264878
C        4.21330306       2.20891185      13.21765427       38       2.50189805      -2.68666196      -2.99406195
C        1.34157779       4.60913042       7.47616475       39      -0.26687557       0.21656871       0.52506709
C        1.39317719       4.55272698       2.81633851       40      -2.90063429       2.06634760      -2.26045322
C        4.26356161       2.16740433      17.87545074       41       0.49379110       1.98319769      -0.58145106
C        1.61427646       3.14390412      11.11439477       42      -1.93384600       1.34077191       1.47095895
C        2.88024182       2.14464911       9.54604219       43      -0.18096517       0.10164946      -0.04138571
C        2.81254547       2.16247729       0.80748640       44       0.98168862       1.01605248      -0.53919953
C        1.58567221       3.18749114      19.85222762       45       1.65578711       0.69095618       2.86311769
C        3.42919484       4.19366820      10.37826488       46       2.93871379      -0.62859011      -3.34121513
C        3.47536452       4.20570688       0.01970601       47      -1.06641781      -0.78784299      -0.30973059
S        1.25458218       1.79078720      15.51843134       48       0.01629581      -0.09573662      -0.01568245
S        1.50487084       1.60623274       5.18559982       49       0.35815904      -0.37703407      -0.03454348
N        1.91723122       5.21440459      15.46513888       50       2.99457884      -3.30896306      -0.05572788
N        4.68457036       2.85572929       5.13480054       51       1.28641295      -0.18714577      -0.01296339
N        4.03758575       3.27577096      13.86426790       52      -1.72822416       2.40903163       2.87012720
N        2.43627711       4.54887015       6.77014326       53       3.41371369       1.83728766      -0.26831973
N        2.41924702       4.59451995       3.57114992       54       2.61320210      -0.44705975       1.44395959
N        4.03709869       3.36377031      17.15043301       55      -2.30717468      -5.40528822      -0.02203265
N        1.77146999       2.06643847      10.39403244       56       1.86615705      -0.00500253      -1.33814621
N        1.72464852       2.14651633       0.04715736       57      -0.45637137       0.45159280      -1.38788104
N        2.41052592       4.29756687      11.09413610       58      -4.21642685      -1.64950490       2.77445412
N        3.75678974       3.20036928       9.49024281       59      -1.39330173      -1.47254300       0.92393965
N        3.75852118       3.15981162       0.78896816       60      -0.31910956      -0.37894005       0.18414305
N        2.40208190       4.30062714      19.91771582       61      -0.60920608      -1.05425096      -0.66225851
62
Lattice="5.71395288 0.0 0.0 -1.0927011252185308 5.608693544416201 0.0 0.0006528327302363195 0.0005353408660162278 20.696948482780545" Properties=species:S:1:pos:R:3:spacegroup_kinds:I:1:forces:R:3 spacegroup="P 1" unit_cell=conventional occupancy="_JSON {\"0\": {\"Cu\": 1}, \"1\": {\"Cu\": 1}, \"2\": {\"H\": 1}, \"3\": {\"H\": 1}, \"4\": {\"H\": 1}, \"5\": {\"H\": 1}, \"6\": {\"H\": 1}, \"7\": {\"H\": 1}, \"8\": {\"H\": 1}, \"9\": {\"H\": 1}, \"10\": {\"H\": 1}, \"11\": {\"H\": 1}, \"12\": {\"H\": 1}, \"13\": {\"H\": 1}, \"14\": {\"H\": 1}, \"15\": {\"H\": 1}, \"16\": {\"H\": 1}, \"17\": {\"H\": 1}, \"18\": {\"H\": 1}, \"19\": {\"H\": 1}, \"20\": {\"C\": 1}, \"21\": {\"C\": 1}, \"22\": {\"C\": 1}, \"23\": {\"C\": 1}, \"24\": {\"C\": 1}, \"25\": {\"C\": 1}, \"26\": {\"C\": 1}, \"27\": {\"C\": 1}, \"28\": {\"C\": 1}, \"29\": {\"C\": 1}, \"30\": {\"C\": 1}, \"31\": {\"C\": 1}, \"32\": {\"C\": 1}, \"33\": {\"C\": 1}, \"34\": {\"C\": 1}, \"35\": {\"C\": 1}, \"36\": {\"C\": 1}, \"37\": {\"C\": 1}, \"38\": {\"C\": 1}, \"39\": {\"C\": 1}, \"40\": {\"C\": 1}, \"41\": {\"C\": 1}, \"42\": {\"C\": 1}, \"43\": {\"C\": 1}, \"44\": {\"C\": 1}, \"45\": {\"C\": 1}, \"46\": {\"C\": 1}, \"47\": {\"C\": 1}, \"48\": {\"S\": 1}, \"49\": {\"S\": 1}, \"50\": {\"N\": 1}, \"51\": {\"N\": 1}, \"52\": {\"N\": 1}, \"53\": {\"N\": 1}, \"54\": {\"N\": 1}, \"55\": {\"N\": 1}, \"56\": {\"N\": 1}, \"57\": {\"N\": 1}, \"58\": {\"N\": 1}, \"59\": {\"N\": 1}, \"60\": {\"N\": 1}, \"61\": {\"N\": 1}}" energy=-432.4786682128906 free_energy=-432.4786682128906 stress="-0.01572996936738491 0.0037138452753424644 -0.007647228427231312 0.0037138452753424644 0.0023026661947369576 -0.006287017371505499 -0.007647228427231312 -0.006287017371505499 -0.010058699175715446" pbc="T T T"
Cu       2.77925338       3.48065944      15.51453015        0      -0.35828659       0.13613698       0.09886541
Cu       2.85724831       3.40306896       5.14901217        1       0.34564552      -0.28907621       0.06477008
H        4.49273572       5.33184025      14.15818489        2       0.02680968      -0.87987483       0.43436167
H        4.33499284       5.45894546       6.48064871        3       1.06997597      -0.20015219      -0.79189491
H        4.26704580       5.44305845       3.92108986        4      -0.21085462       0.27238432      -0.17409840
H        4.50753838       5.27441949      16.78735948        5       0.33853915       0.05524882       0.20183435
H        0.79155742       5.33189583      12.66392886        6      -0.64395511      -0.64874190      -0.05435915
H        5.05752436       1.78185911       8.05387613        7      -1.09950817      -1.07595062      -0.27644008
H        5.03821049       1.77479397       2.33841929        8      -1.02883959      -0.98610526      -0.09307592
H        0.75382533       5.25708935      18.40595084        9      -0.07371023       0.22305229      -0.03549775
H        5.47605917       1.17560005      11.71652956       10      -0.18222427       0.29284221       0.52618814
H        0.11434757       5.59136327       8.99643454       11       0.55405480      -0.11758889      -0.52876264
H        0.10297899       5.58067432       1.39826663       12       0.41390806      -0.04268586       0.24226519
H        5.48797297       1.21051922      19.35863464       13       0.32340252      -1.00176311       0.60588956
H        3.58001029       1.34396880      13.41855232       14      -0.41641790      -0.40220326      -0.00756469