69
Lattice="10.93934415 0.0 0.0 -1.7070557786609775 10.61054185079435 0.0 -2.3553809622825965 -1.190510017773719 19.444007164422587" Properties=species:S:1:pos:R:3:spacegroup_kinds:I:1:forces:R:3 spacegroup="P 1" unit_cell=conventional occupancy="_JSON {\"0\": {\"Zn\": 1}, \"1\": {\"Zn\": 1}, \"2\": {\"Zn\": 1}, \"3\": {\"Zn\": 1}, \"4\": {\"H\": 1}, \"5\": {\"H\": 1}, \"6\": {\"H\": 1}, \"7\": {\"H\": 1}, \"8\": {\"H\": 1}, \"9\": {\"H\": 1}, \"10\": {\"H\": 1}, \"11\": {\"H\": 1}, \"12\": {\"H\": 1}, \"13\": {\"H\": 1}, \"14\": {\"H\": 1}, \"15\": {\"H\": 1}, \"16\": {\"H\": 1}, \"17\": {\"H\": 1}, \"18\": {\"H\": 1}, \"19\": {\"H\": 1}, \"20\": {\"H\": 1}, \"21\": {\"H\": 1}, \"22\": {\"H\": 1}, \"23\": {\"H\": 1}, \"24\": {\"H\": 1}, \"25\": {\"C\": 1}, \"26\": {\"C\": 1}, \"27\": {\"C\": 1}, \"28\": {\"C\": 1}, \"29\": {\"C\": 1}, \"30\": {\"C\": 1}, \"31\": {\"C\": 1}, \"32\": {\"C\": 1}, \"33\": {\"C\": 1}, \"34\": {\"C\": 1}, \"35\": {\"C\": 1}, \"36\": {\"C\": 1}, \"37\": {\"C\": 1}, \"38\": {\"C\": 1}, \"39\": {\"C\": 1}, \"40\": {\"C\": 1}, \"41\": {\"C\": 1}, \"42\": {\"C\": 1}, \"43\": {\"C\": 1}, \"44\": {\"C\": 1}, \"45\": {\"C\": 1}, \"46\": {\"C\": 1}, \"47\": {\"C\": 1}, \"48\": {\"C\": 1}, \"49\": {\"C\": 1}, \"50\": {\"C\": 1}, \"51\": {\"N\": 1}, \"52\": {\"N\": 1}, \"53\": {\"N\": 1}, \"54\": {\"O\": 1}, \"55\": {\"O\": 1}, \"56\": {\"O\": 1}, \"57\": {\"O\": 1}, \"58\": {\"O\": 1}, \"59\": {\"O\": 1}, \"60\": {\"O\": 1}, \"61\": {\"O\": 1}, \"62\": {\"O\": 1}, \"63\": {\"O\": 1}, \"64\": {\"O\": 1}, \"65\": {\"O\": 1}, \"66\": {\"O\": 1}, \"67\": {\"O\": 1}, \"68\": {\"O\": 1}}" energy=-450.7780456542969 free_energy=-450.7780456542969 stress="0.0005217232392169535 -4.418767639435828e-05 9.107558980758768e-06 -4.418767639435828e-05 -0.00018867445760406554 -0.00010696254321373999 9.107558980758768e-06 -0.00010696254321373999 0.0003422266454435885" pbc="T T T"
Zn       2.20347923       5.55636655      10.83928893        0      -0.04136078       0.09153961      -0.07871187
Zn       4.66946760       5.96228995       8.76168323        1       0.03730743       0.00504968      -0.00462125
Zn       2.59221278       3.60104601       8.34621326        2      -0.02036166      -0.00054409       0.03314734
Zn       4.63670953       3.63715318      10.94153325        3       0.10237031      -0.00499077      -0.06821024
H        4.46400225       7.53626526       2.12645519        4      -0.00204306       0.02388149       0.00291973
H       -0.47285571       4.15133168      14.95105558        5      -0.00415634       0.10462730      -0.01306226
H        0.52659297       4.70648367      13.67327135        6      -0.01042411      -0.02686189       0.03738403
H        1.33098326       0.04136045       8.82144379        7       0.03967528      -0.01276638      -0.01106055
H       -0.25787507       9.13095402       9.79047984        8       0.06359753       0.02568991      -0.07710740
H       -0.46809412       9.05616346       8.00869526        9      -0.08229493      -0.00322983       0.06923152
H        2.65221764       7.61857122       5.98654259       10       0.02252695      -0.07432561      -0.06207041
H        2.38784368       8.67355588       4.55210700       11       0.01899876      -0.00733978       0.01740007
H        3.50139359       9.18133216       5.86784531       12      -0.07695579      -0.01672648      -0.02558161
H        4.79875095       3.04069519      18.62165223       13      -0.13720226      -0.09925155      -0.03839557
H        5.65608305       2.70611861      17.21668855       14       0.04097463      -0.03254646      -0.06829065
H        9.04667319       4.29758262       7.99539998       15      -0.00213411       0.03433946       0.08864667
H       -0.36786816       4.96696159      16.91694052       16      -0.09950239      -0.02505184      -0.00647156
H        0.07671388       4.12063840      18.30684319       17       0.01023656      -0.00683861      -0.04247113
H       -1.94239983       5.07320953      10.98770497       18       0.02150707      -0.00770894       0.04209489
H        5.61231229      -0.35131496      10.71006450       19      -0.06149063       0.08379544      -0.01699036
H        3.43663770       3.24319081       4.35356735       20       0.01053398       0.04749665      -0.02913814
H        1.88370156       5.31862326      19.39266428       21       0.00568665       0.07844201      -0.03652576
H        3.72842701       3.28598399       1.88912823       22      -0.00130322      -0.06499724      -0.00066876
H        4.80797475       3.26312858      15.04775549       23      -0.04859492      -0.02667673      -0.01711005
H        2.56752741       2.32174199      19.38975298       24       0.09833723      -0.00916052       0.00572182
C        7.10365623       4.84060250       9.90529015       25       0.03801984       0.01068756      -0.04945565
C        2.32807174       3.30852638      18.97969482       26      -0.08319762       0.10128395       0.08681785
C        4.34843174       5.50836775       0.37615866       27      -0.10371892      -0.03899863       0.02080555
C       -0.05887288       4.55233398       9.20299970       28      -0.03479004       0.04227578       0.04421727
C        3.80742594       5.33261446       4.63683775       29       0.01739790       0.03068483       0.01251206
C       -1.52859857       4.57496761       8.98744625       30       0.03116947       0.01201519      -0.16067958
C        8.58607070       4.86683273       9.99927709       31      -0.04806852      -0.05010840       0.08165699
C        3.90680570      -0.33400573       9.46927586       32      -0.04773659      -0.04509181      -0.01222876
C        3.17640554       9.66051867      10.16412119       33       0.14705300      -0.01305031       0.04934930
C        3.34081845       8.18585181      10.13900891       34      -0.12070428      -0.11829281       0.02943984
C        3.78875050       1.16725220       9.50423432       35      -0.11896017      -0.01835310      -0.01610749
C        2.45550173       3.48103570      17.52862213       36      -0.06014469      -0.03818997       0.11906032
C        3.72935057       5.15460486       6.11007721       37      -0.01344666      -0.05961020      -0.05224687
C        3.03715398       4.17783137      13.32566557       38       0.03863030      -0.03082851       0.01034164
C        2.78221806       3.92070406      14.75903992       39       0.08327748       0.04914659       0.06103964
C        1.51707780       4.15933613      15.35165115       40      -0.10891280       0.08974904      -0.01364681
C        1.37749859       3.94793271      16.75338431       41      -0.21683532      -0.00361803       0.06820253
C       -0.01056005       9.61891780       8.83528626       42       0.19597721      -0.04875918      -0.05911822
C        3.12137209       8.32462622       5.29425313       43       0.03307429       0.00496054      -0.00442109
C        3.70342522       3.19122839      16.90014547       44       0.03446853      -0.04352254       0.31707227
C        3.84795929       3.43147765      15.53684295       45       0.02394202      -0.02749217      -0.04911719
C        3.85185316       4.19708900       2.46953756       46       0.05859357      -0.03110489      -0.09333579
C        3.67435020       4.17612569       3.84063027       47      -0.03301867      -0.09235787      -0.02488519
C        4.08410229       6.55952098       3.98415453       48      -0.09608757      -0.02050614      -0.05337685
C        4.24989605       6.57682671       2.59582319       49      -0.00409497      -0.03606194       0.00581194
C        4.15815379       5.41011563       1.81994373       50       0.01042892      -0.02530465       0.10301527
N        0.39154273       4.61513727      14.68006822       51       0.24808931      -0.15746690      -0.10692815
N        4.74976890       2.67730804      17.67216653       52      -0.12967199       0.24773142      -0.28055015
N        0.10620920       4.14929375      17.29076344       53       0.36049274       0.05294280       0.06335196
O        3.52344473       4.67335461       9.70042198       54       0.00226784      -0.02528317       0.03697652
O        4.25461219       6.05125193       6.85470847       55      -0.01701549       0.05689161       0.02684389
O        4.14313122       3.77050415      12.83021735       56      -0.00405365      -0.03820650       0.03887645
O        3.16489426       4.08206804       6.52981119       57       0.03254182       0.04671302      -0.04503793
O        2.13643075       4.80706352      12.65126809       58      -0.06437981       0.03739667       0.03205007
O        1.40912021       9.55887932       8.61034307       59      -0.16674522       0.04864503       0.10864912
O        4.26302179       7.76131041       4.62292226       60       0.12825710       0.06672019       0.06230998
O        2.43585738       7.50085355      10.72654062       61       0.04970267       0.02881369      -0.03779151
O        4.51071075       1.75836925      10.37053832       62       0.03479026      -0.04711836       0.00030806
O        6.56111937       5.41965751       8.90898203       63      -0.02022427      -0.00637712      -0.05080391
O        0.63903506       3.91666320       8.34119652       64       0.02199072      -0.02920014      -0.02818355
O        6.51150915       4.24382077      10.86575879       65      -0.02279214      -0.00122020       0.03461885
O        0.37736399       5.17052863      10.22880603       66       0.00959111      -0.00977623       0.02704248
O        4.38165325       7.74574574       9.55336259       67       0.01537034       0.00062548      -0.01068446
O        2.98665306       1.69893222       8.66519531       68       0.01554474       0.05277196       0.00817099
69
Lattice="10.93934415 0.0 0.0 -1.7070557786609775 10.61054185079435 0.0 -2.3553809622825965 -1.190510017773719 19.444007164422587" Properties=species:S:1:pos:R:3:spacegroup_kinds:I:1:forces:R:3 spacegroup="P 1" unit_cell=conventional occupancy="_JSON {\"0\": {\"Zn\": 1}, \"1\": {\"Zn\": 1}, \"2\": {\"Zn\": 1}, \"3\": {\"Zn\": 1}, \"4\": {\"H\": 1}, \"5\": {\"H\": 1}, \"6\": {\"H\": 1}, \"7\": {\"H\": 1}, \"8\": {\"H\": 1}, \"9\": {\"H\": 1}, \"10\": {\"H\": 1}, \"11\": {\"H\": 1}, \"12\": {\"H\": 1}, \"13\": {\"H\": 1}, \"14\": {\"H\": 1}, \"15\": {\"H\": 1}, \"16\": {\"H\": 1}, \"17\": {\"H\": 1}, \"18\": {\"H\": 1}, \"19\": {\"H\": 1}, \"20\": {\"H\": 1}, \"21\": {\"H\": 1}, \"22\": {\"H\": 1}, \"23\": {\"H\": 1}, \"24\": {\"H\": 1}, \"25\": {\"C\": 1}, \"26\": {\"C\": 1}, \"27\": {\"C\": 1}, \"28\": {\"C\": 1}, \"29\": {\"C\": 1}, \"30\": {\"C\": 1}, \"31\": {\"C\": 1}, \"32\": {\"C\": 1}, \"33\": {\"C\": 1}, \"34\": {\"C\": 1}, \"35\": {\"C\": 1}, \"36\": {\"C\": 1}, \"37\": {\"C\": 1}, \"38\": {\"C\": 1}, \"39\": {\"C\": 1}, \"40\": {\"C\": 1}, \"41\": {\"C\": 1}, \"42\": {\"C\": 1}, \"43\": {\"C\": 1}, \"44\": {\"C\": 1}, \"45\": {\"C\": 1}, \"46\": {\"C\": 1}, \"47\": {\"C\": 1}, \"48\": {\"C\": 1}, \"49\": {\"C\": 1}, \"50\": {\"C\": 1}, \"51\": {\"N\": 1}, \"52\": {\"N\": 1}, \"53\": {\"N\": 1}, \"54\": {\"O\": 1}, \"55\": {\"O\": 1}, \"56\": {\"O\": 1}, \"57\": {\"O\": 1}, \"58\": {\"O\": 1}, \"59\": {\"O\": 1}, \"60\": {\"O\": 1}, \"61\": {\"O\": 1}, \"62\": {\"O\": 1}, \"63\": {\"O\": 1}, \"64\": {\"O\": 1}, \"65\": {\"O\": 1}, \"66\": {\"O\": 1}, \"67\": {\"O\": 1}, \"68\": {\"O\": 1}}" energy=-450.7867431640625 free_energy=-450.7867431640625 stress="0.0003823034348897636 -5.480048275785521e-05 3.701381865539588e-05 -5.480048275785521e-05 -0.00010841416951734573 -5.730886186938733e-05 3.701381865539588e-05 -5.730886186938733e-05 0.00041348469676449895" pbc="T T T"
Zn       2.20083364       5.55928623      10.83833428        0      -0.02095622       0.06150583      -0.06253441
Zn       4.66707741       5.96209245       8.76011736        1       0.04342078       0.01244755       0.01044814
Zn       2.59078647       3.60131117       8.34736911        2      -0.02699581       0.01846679       0.02734780
Zn       4.63607843       3.63643961      10.94033101        3       0.09837446       0.00487576      -0.06392639
H        4.46252529       7.53738013       2.12562705        4       0.00495981       0.03240654      -0.01037673
H       -0.47331306       4.15396985      14.94986993        5       0.00861989       0.11840914      -0.00936359
H        0.52562156       4.70689827      13.67278463        6       0.01495510      -0.02082135      -0.01718992
H        1.33103701       0.04214066       8.81980677        7       0.04955885      -0.05155082      -0.01086679
H       -0.25712052       9.13107096       9.78775062        8       0.05648147       0.02393252      -0.05825123
H       -0.47053434       9.05565099       8.00878056        9      -0.06729881       0.00272635       0.06293084
H        2.65268157       7.61696686       5.98403929       10       0.02311639      -0.05448991      -0.06551833
H        2.38767844       8.67377876       4.55172468       11      -0.01495191       0.00298581      -0.02431953
H        3.49928050       9.18176649       5.86510231       12      -0.06713273       0.00646268      -0.00039974
H        4.79592219       3.03891876      18.62073445       13      -0.13115367      -0.10731566      -0.04391274
H        5.65537591       2.70692919      17.21448727       14      -0.00876920      -0.03044203      -0.04752215
H        9.04527039       4.29861666       7.99568651       15      -0.02605275       0.01077086       0.01386222
H       -0.37020580       4.96811650      16.91543167       16      -0.04134159      -0.12347728       0.03018024
H        0.07658757       4.12130166      18.30569490       17       0.01296894      -0.01232484      -0.01130117
H       -1.94284640       5.07499926      10.98789934       18       0.01778282      -0.01921973       0.02024610
H        5.61067202      -0.34860514      10.70902997       19      -0.02300598       0.09743463       0.00621471
H        3.43613363       3.24366332       4.35198745       20       0.00803513       0.04123786      -0.01915984
H        1.88269566       5.32047571      19.39222225       21       0.00378769       0.05754492      -0.02423836
H        3.72730499       3.28471951       1.88782761       22      -0.00052788      -0.06177136      -0.00883517
H        4.80652628       3.26246403      15.04634965       23      -0.01586193      -0.03225948      -0.02906044
H        2.56853269       2.32214283      19.39051555       24       0.07648563       0.04157057      -0.00651327
C        7.10232684       4.84238872       9.90448627       25       0.05605304      -0.03036798      -0.01041470
C        2.32535924       3.30989374      18.98013715       26      -0.03838311       0.00865869       0.09178829
C        4.34678783       5.50941471       0.37583734       27      -0.11766125      -0.00358103       0.06124970
C       -0.06057281       4.55511939       9.20151564       28       0.00386906      -0.01939783       0.03452499
C        3.80758764       5.33416298       4.63655158       29      -0.01721782      -0.05901623      -0.04530029
C       -1.52967673       4.57515048       8.98497476       30       0.02165589       0.07130484      -0.00906435
C        8.58567263       4.86636492       9.99929854       31      -0.04234565      -0.03611844       0.03017712
C        3.90403948      -0.33370356       9.46750672       32       0.11821783      -0.10268959       0.11663456
C        3.17774637       9.66072632      10.16487307       33      -0.07682884       0.05350501      -0.10029958
C        3.33904639       8.18565884      10.13766724       34      -0.04632713      -0.04840693       0.03462063
C        3.78610540       1.16685768       9.50209507       35      -0.03252414       0.04432768       0.07742279
C        2.45303967       3.48010816      17.52981407       36      -0.03328127      -0.01091267       0.04858218
C        3.72749505       5.15496056       6.10836559       37       0.03301149       0.00040701       0.05348676
C        3.03650000       4.17840722      13.32551046       38      -0.04071295       0.00695258       0.01015991
C        2.78293597       3.92154082      14.75944171       39      -0.01960715       0.07489663       0.01821610
C        1.51456599       4.16011022      15.35011963       40       0.07865968       0.02062955       0.08855668
C        1.37505954       3.94782421      16.75384043       41      -0.08372587      -0.01116499      -0.03144534
C       -0.00874134       9.61880040       8.83313308       42       0.06870133      -0.00402385      -0.04238801
C        3.12036283       8.32535518       5.29241755       43       0.06456310      -0.04779875       0.02409643
C        3.70197641       3.19266113      16.90103806       44      -0.01047000      -0.03389458       0.18227273
C        3.84743528       3.43122677      15.53456279       45      -0.01176978      -0.03168862       0.11092509
C        3.85098671       4.19630361       2.46708214       46       0.04727854      -0.02587426       0.01912777
C        3.67367777       4.17646217       3.83939289       47      -0.02099956      -0.06515047      -0.04386246
C        4.08200833       6.55946529       3.98274787       48      -0.03777641       0.08375061      -0.04587501
C        4.24980047       6.57789106       2.59407096       49      -0.03624535      -0.08066429       0.07812223
C        4.15716920       5.40978159       1.82086600       50       0.02712689       0.02275553      -0.00901932
N        0.39374077       4.61327422      14.67832002       51       0.08812663      -0.13457857      -0.10008954
N        4.74753003       2.67938996      17.66956683       52      -0.03343429       0.23095834      -0.23056535
N        0.10895363       4.15046786      17.29048786       53       0.15521789       0.17568012       0.04665068
O        3.52247929       4.67433174       9.70045361       54      -0.01279415      -0.02641461       0.04405316
O        4.25270513       6.05169694       6.85572350       55      -0.04304349       0.02925082      -0.05055296
O        4.14057166       3.77106810      12.82926902       56       0.04859075      -0.05504785       0.00928293
O        3.16415702       4.08337022       6.53018623       57       0.01571157       0.02172677      -0.06772090
O        2.13403675       4.80830581      12.65158769       58      -0.02524951       0.02208999       0.03848124
O        1.40656657       9.55948438       8.61003364       59      -0.06689596       0.01797670       0.06568730
O        4.26363073       7.76256234       4.62276128       60       0.09745695       0.01548364       0.02594125
O        2.43508264       7.50168897      10.72470105       61      -0.01310728      -0.00309587      -0.00994875
O        4.50982741       1.75917381      10.36952508       62      -0.02351659      -0.11588764      -0.06957201
O        6.55920249       5.41975627       8.90860538       63      -0.01979887       0.01710158      -0.08090498
O        0.63679276       3.91534556       8.34065235       64       0.01474760       0.01199479       0.00347377
O        6.50995613       4.24560077      10.86517136       65      -0.01698703       0.00140787       0.03890795
O        0.37653483       5.17178383      10.22840357       66      -0.01876589      -0.01560016      -0.01512724
O        4.38030461       7.74651273       9.55287894       67       0.03358069      -0.02752091      -0.03325526
O        2.98562707       1.70049627       8.66408000       68      -0.00759904       0.03893241      -0.01497748
69
Lattice="10.93934415 0.0 0.0 -1.7070557786609775 10.61054185079435 0.0 -2.3553809622825965 -1.190510017773719 19.444007164422587" Properties=species:S:1:pos:R:3:spacegroup_kinds:I:1:forces:R:3 spacegroup="P 1" unit_cell=conventional occupancy="_JSON {\"0\": {\"Zn\": 1}, \"1\": {\"Zn\": 1}, \"2\": {\"Zn\": 1}, \"3\": {\"Zn\": 1}, \"4\": {\"H\": 1}, \"5\": {\"H\": 1}, \"6\": {\"H\": 1}, \"7\": {\"H\": 1}, \"8\": {\"H\": 1}, \"9\": {\"H\": 1}, \"10\": {\"H\": 1}, \"11\": {\"H\": 1}, \"12\": {\"H\": 1}, \"13\": {\"H\": 1}, \"14\": {\"H\": 1}, \"15\": {\"H\": 1}, \"16\": {\"H\": 1}, \"17\": {\"H\": 1}, \"18\": {\"H\": 1}, \"19\": {\"H\": 1}, \"20\": {\"H\": 1}, \"21\": {\"H\": 1}, \"22\": {\"H\": 1}, \"23\": {\"H\": 1}, \"24\": {\"H\": 1}, \"25\": {\"C\": 1}, \"26\": {\"C\": 1}, \"27\": {\"C\": 1}, \"28\": {\"C\": 1}, \"29\": {\"C\": 1}, \"30\": {\"C\": 1}, \"31\": {\"C\": 1}, \"32\": {\"C\": 1}, \"33\": {\"C\": 1}, \"34\": {\"C\": 1}, \"35\": {\"C\": 1}, \"36\": {\"C\": 1}, \"37\": {\"C\": 1}, \"38\": {\"C\": 1}, \"39\": {\"C\": 1}, \"40\": {\"C\": 1}, \"41\": {\"C\": 1}, \"42\": {\"C\": 1}, \"43\": {\"C\": 1}, \"44\": {\"C\": 1}, \"45\": {\"C\": 1}, \"46\": {\"C\": 1}, \"47\": {\"C\": 1}, \"48\": {\"C\": 1}, \"49\": {\"C\": 1}, \"50\": {\"C\": 1}, \"51\": {\"N\": 1}, \"52\": {\"N\": 1}, \"53\": {\"N\": 1}, \"54\": {\"O\": 1}, \"55\": {\"O\": 1}, \"56\": {\"O\": 1}, \"57\": {\"O\": 1}, \"58\": {\"O\": 1}, \"59\": {\"O\": 1}, \"60\": {\"O\": 1}, \"61\": {\"O\": 1}, \"62\": {\"O\": 1}, \"63\": {\"O\": 1}, \"64\": {\"O\": 1}, \"65\": {\"O\": 1}, \"66\": {\"O\": 1}, \"67\": {\"O\": 1}, \"68\": {\"O\": 1}}" energy=-450.79302978515625 free_energy=-450.79302978515625 stress="0.000287602684693411 -5.695717118214816e-05 -3.804572315857513e-06 -5.695717118214816e-05 -6.083106200094335e-05 -5.743673909819336e-07 -3.804572315857513e-06 -5.743673909819336e-07 0.00039400416426360607" pbc="T T T"
Zn       2.19882899       5.56127823      10.83631192        0      -0.03185369       0.03593341      -0.03401682
Zn       4.66606026       5.96329324       8.76035559        1       0.03846716      -0.00199945       0.01931937
Zn       2.58909614       3.60178469       8.34730285        2      -0.00379321       0.02289757       0.00900877
Zn       4.63773303       3.63725791      10.93804266        3       0.07304614      -0.00198408      -0.02286220
H        4.46167364       7.53944719       2.12436579        4      -0.01002264      -0.04211544       0.01905090
H       -0.47363648       4.15678698      14.94819434        5      -0.00898427       0.10848254      -0.00054133
H        0.52506019       4.70712579      13.67172847        6       0.02995169      -0.01763048      -0.07617302
H        1.33230085       0.04241261       8.81852853        7       0.02844356      -0.01206050      -0.01028987
H       -0.25675736       9.13126174       9.78526763        8       0.05222858       0.03023473      -0.04112853
H       -0.47273755       9.05589686       8.00971551        9      -0.05776826       0.00642939       0.04376353
H        2.65291007       7.61729626       5.98132280       10       0.00789768      -0.08002374      -0.03549077
H        2.38603263       8.67480420       4.54995725       11       0.03358936      -0.02520142       0.01222771
H        3.49754451       9.18307426       5.86324473       12      -0.06502355      -0.00554487       0.00111303
H        4.79324358       3.03677339      18.61980979       13      -0.12523063      -0.11737508      -0.04732969
H        5.65437743       2.70741675      17.21232449       14      -0.05447486      -0.02764414      -0.03505436
H        9.04334693       4.30010270       7.99500624       15      -0.02658648       0.00972657       0.01097047
H       -0.37170723       4.96693068      16.91474483       16      -0.04673655      -0.12380587       0.03387813
H        0.07602383       4.12148450      18.30506250       17       0.02234574      -0.01436020       0.04901418
H       -1.94339081       5.07716906      10.98787123       18       0.00632750      -0.03072621       0.00040823
H        5.60990530      -0.34592541      10.70906890       19      -0.06308241       0.06147625      -0.02208571
H        3.43397215       3.24582199       4.34976379       20      -0.00457633      -0.01970409       0.00757287
H        1.88142852       5.32237613      19.39101317       21       0.00105112       0.02571575      -0.00597729
H        3.72646265       3.28419168       1.88638009       22       0.00493300      -0.03023705       0.00617824
H        4.80479236       3.26216468      15.04501054       23      -0.01850066      -0.03247896      -0.00914831
H        2.56937640       2.32317129      19.38958551       24       0.07366005       0.03260370       0.00640975
C        7.10352529       4.84324419       9.90416182       25      -0.10129452      -0.05046219      -0.00234037
C        2.32339887       3.31017117      18.98018825       26      -0.04896230       0.05032495       0.09548310
C        4.34404948       5.51053986       0.37584514       27      -0.09375402      -0.01122275       0.00494908
C       -0.06135091       4.55519235       9.19959060       28      -0.02910191       0.02168366       0.08817852
C        3.80579950       5.33463382       4.63493895       29      -0.00881857      -0.03813750      -0.04450150
C       -1.53042843       4.57633764       8.98381595       30      -0.02643260       0.07343942       0.02974911
C        8.58389015       4.86678732       9.99938095       31       0.06949262      -0.03150183       0.00469781
C        3.90379321      -0.33501405       9.46905854       32      -0.03218794       0.07096815       0.00078480
C        3.17563954       9.66248193      10.16399026       33       0.09289393      -0.07434596       0.01454717
C        3.33745164       8.18432705      10.13745914       34       0.04906216       0.09801060      -0.01837895
C        3.78542633       1.16928303       9.50237979       35      -0.12298092      -0.07985902      -0.03602786
C        2.45117877       3.48081564      17.53055671       36      -0.04134293      -0.00672824       0.01714575
C        3.72650340       5.15740004       6.10751069       37       0.01130249      -0.08616850       0.03004569
C        3.03442444       4.18094358      13.32543031       38       0.10491052      -0.07939684       0.01051193
C        2.78297526       3.92381990      14.75956705       39      -0.00574611       0.05277837       0.04682133
C        1.51384624       4.16106590      15.34930590       40       0.10199741       0.01627900       0.08293027
C        1.37362190       3.94911473      16.75232636       41      -0.01353043      -0.03646645       0.03236869
C       -0.00833237       9.62022856       8.83154684       42       0.05366892      -0.04772180      -0.02092426
C        3.12081029       8.32492817       5.29117087       43       0.02125385       0.02908152      -0.03298447
C        3.70029434       3.19276421      16.90347626       44      -0.06172231       0.01270160       0.01628783
C        3.84663474       3.43137699      15.53558588       45      -0.04803975      -0.00999770       0.09708540
C        3.85069928       4.19689020       2.46582655       46       0.03505567      -0.09172005      -0.01158112
C        3.67212727       4.17613844       3.83732138       47      -0.00631673       0.02909461      -0.01772894
C        4.08040972       6.56036744       3.98130408       48      -0.02370247       0.06410524      -0.01613790
C        4.24857855       6.57743914       2.59336509       49      -0.01570152       0.02315713       0.03031701
C        4.15674932       5.40965798       1.81970928       50       0.01489523       0.05561675       0.01257171
N        0.39470732       4.61157880      14.67557566       51       0.04539472      -0.11406706      -0.04166865
N        4.74512612       2.68172992      17.66680310       52       0.08843766       0.18910857      -0.13166395
N        0.11075530       4.15223011      17.29162395       53       0.08785109       0.19465630      -0.03600012
O        3.52075255       4.67423178       9.70265834       54      -0.01194705      -0.01600561       0.00981226
O        4.25112315       6.05194966       6.85639639       55      -0.03238678       0.06513207      -0.04970852
O        4.14080776       3.77090259      12.82957621       56      -0.06647337       0.00073316       0.01630564
O        3.16462154       4.08365134       6.52771517       57       0.00856556       0.03560345      -0.03935932
O        2.13141434       4.80893710      12.65280523       58      -0.02484067       0.05421868      -0.02474666
O        1.40557386       9.56104974       8.60960543       59      -0.02637523      -0.00629304       0.05468839
O        4.26435561       7.76322154       4.62289961       60       0.09038878      -0.01307454      -0.00171980
O        2.43432935       7.50273345      10.72374617       61      -0.07062926      -0.06587860       0.02687298
O        4.50910095       1.75849760      10.36834392       62       0.01625086      -0.03203977      -0.01695292
O        6.55763372       5.41944186       8.90806725       63       0.02445056       0.00564709      -0.05997130
O        0.63604706       3.91659952       8.33935118       64       0.02964455      -0.00323760      -0.02042027
O        6.50781973       4.24655108      10.86484451       65       0.06425565       0.03398591       0.00218910
O        0.37384000       5.17222481      10.22776251       66      -0.00125159      -0.02466039      -0.02919549
O        4.38056621       7.74744813       9.55249093       67      -0.01125462      -0.03135501      -0.01084001
O        2.98325830       1.70067803       8.66184734       68       0.05971290       0.02340505       0.05969115
69