74
Lattice="3.74376839 0.0 0.0 1.8759477468989834 14.376650433026228 0.0 1.8784501025433735 4.695887612378685 14.908954217134971" Properties=species:S:1:pos:R:3:spacegroup_kinds:I:1:forces:R:3 spacegroup="P 1" unit_cell=conventional occupancy="_JSON {\"0\": {\"Cd\": 1}, \"1\": {\"Cd\": 1}, \"2\": {\"H\": 1}, \"3\": {\"H\": 1}, \"4\": {\"H\": 1}, \"5\": {\"H\": 1}, \"6\": {\"H\": 1}, \"7\": {\"H\": 1}, \"8\": {\"H\": 1}, \"9\": {\"H\": 1}, \"10\": {\"H\": 1}, \"11\": {\"H\": 1}, \"12\": {\"H\": 1}, \"13\": {\"H\": 1}, \"14\": {\"H\": 1}, \"15\": {\"H\": 1}, \"16\": {\"H\": 1}, \"17\": {\"H\": 1}, \"18\": {\"H\": 1}, \"19\": {\"H\": 1}, \"20\": {\"H\": 1}, \"21\": {\"H\": 1}, \"22\": {\"H\": 1}, \"23\": {\"H\": 1}, \"24\": {\"H\": 1}, \"25\": {\"H\": 1}, \"26\": {\"C\": 1}, \"27\": {\"C\": 1}, \"28\": {\"C\": 1}, \"29\": {\"C\": 1}, \"30\": {\"C\": 1}, \"31\": {\"C\": 1}, \"32\": {\"C\": 1}, \"33\": {\"C\": 1}, \"34\": {\"C\": 1}, \"35\": {\"C\": 1}, \"36\": {\"C\": 1}, \"37\": {\"C\": 1}, \"38\": {\"C\": 1}, \"39\": {\"C\": 1}, \"40\": {\"C\": 1}, \"41\": {\"C\": 1}, \"42\": {\"C\": 1}, \"43\": {\"C\": 1}, \"44\": {\"C\": 1}, \"45\": {\"C\": 1}, \"46\": {\"C\": 1}, \"47\": {\"C\": 1}, \"48\": {\"C\": 1}, \"49\": {\"C\": 1}, \"50\": {\"C\": 1}, \"51\": {\"C\": 1}, \"52\": {\"C\": 1}, \"53\": {\"C\": 1}, \"54\": {\"C\": 1}, \"55\": {\"C\": 1}, \"56\": {\"C\": 1}, \"57\": {\"C\": 1}, \"58\": {\"N\": 1}, \"59\": {\"N\": 1}, \"60\": {\"N\": 1}, \"61\": {\"N\": 1}, \"62\": {\"N\": 1}, \"63\": {\"N\": 1}, \"64\": {\"N\": 1}, \"65\": {\"N\": 1}, \"66\": {\"Cl\": 1}, \"67\": {\"Cl\": 1}, \"68\": {\"Cl\": 1}, \"69\": {\"Cl\": 1}, \"70\": {\"O\": 1}, \"71\": {\"O\": 1}, \"72\": {\"O\": 1}, \"73\": {\"O\": 1}}" energy=-494.8426513671875 free_energy=-494.8426513671875 stress="0.0012664597015827894 -0.00011919689131900668 -9.36479918891564e-05 -0.00011919689131900668 0.00471443822607398 0.0002374654432060197 -9.36479918891564e-05 0.0002374654432060197 -0.00772912846878171" pbc="T T T"
Cd       4.09291352       7.11575703      11.18040488        0       0.03380444       0.01193146       0.00320737
Cd       3.40579957      11.95861494       3.72640646        1      -0.04068483      -0.00120415       0.00565819
H        4.17123152       5.37025756       8.64623683        2       0.05203452       0.03996375      -0.03114192
H        4.17322312       8.86238726      13.71708337        3       0.05115181      -0.04512416       0.01542389
H        3.32431966      13.70383903       6.26083273        4      -0.05597284      -0.06657483       0.03862439
H        3.32183002      10.21189110       1.19032034        5      -0.05614265       0.03122047      -0.02199283
H        4.07662891      14.94516689      11.33779393        6      -0.02798218       0.02379882      -0.03015492
H        5.94753738      13.66556904      11.02455167        7      -0.04362211       0.01248994       0.04623942
H        3.42026644       4.12831571       3.56947912        8       0.00292760      -0.06051725       0.01218932
H        1.54839152       5.40777645       3.88120338        9       0.01404047       0.03729677      -0.02832494
H        4.34540111      15.18096425      13.79750229       10       0.01183537      -0.05449069       0.04346309
H        6.21380767      13.42845134       8.56557671       11       0.01049707       0.07049439      -0.05732943
H        3.15119651       3.89319026       1.10881842       12      -0.02558604       0.03089602      -0.02540486
H        1.28238621       5.64483776       6.34165723       13      -0.01352515      -0.06306148       0.05044744
H        5.40135694      17.24401553      14.73878996       14      -0.01383346      -0.04614534       0.00084616
H        3.52259012      11.36428333       7.62471172       15      -0.00856293       0.03747912      -0.06511733
H        2.09410813       1.82953803       0.16902906       16       0.00822552       0.04012648      -0.04752245
H        3.97284319       7.70913208       7.28232559       17       0.00966695      -0.03894689       0.05482481
H        4.24321382       4.70833735      13.22873912       18      -0.00505346      -0.02578652       0.00013965
H        4.24188747       9.52349339       9.13347485       19      -0.00678926       0.02857380       0.01380482
H        3.25232156      14.36558005       1.67823285       20      -0.00356943      -0.00033879      -0.00428899
H        3.25430122       9.54812241       5.77345387       21      -0.02740175       0.03790830       0.02597608
H        3.32179242       3.38841314       7.68648549       22      -0.02969774      -0.08291292       0.00316046
H        3.32499711      10.84460231      14.67670195       23      -0.03113363       0.08060979      -0.00623648
H        4.17487982      15.68492773       7.22208287       24       0.02675136       0.07323708      -0.07855707
H        4.17216705       8.22950656       0.22908350       25       0.02137474      -0.08291528       0.06019431
C        3.86998689       4.56241637       9.31779905       26      -0.18740681      -0.71707940      -0.33674315
C        3.87154760       9.66979424      13.04505789       27      -0.18585806       0.75184745       0.29309705
C        3.62611264      14.51007431       5.58889508       28       0.17033978       0.76611388       0.36950207
C        3.62074909       9.40325579       1.86233252       29       0.21343893      -0.72712886      -0.26957342
C        4.79750915      16.73425115       9.46562020       30       0.21764474       0.47171831      -0.44400296
C        2.92489259      11.87579659      12.89598736       31       0.14705424      -0.45053360       0.58953017
C        2.69483904       2.33926262       5.44057435       32      -0.11291824      -0.41407624       0.53541255
C        4.56779580       7.19802109       2.00959251       33      -0.06182975       0.33564654      -0.45766228
C        4.93022077      16.87287774      10.90719877       34      -0.01316290       0.04897984       0.21976931
C        3.05501321      11.73782025      11.45584247       35       0.00199229      -0.01060767      -0.24125554
C        2.56449928       2.19986016       3.99925516       36       0.03677597       0.03831536      -0.19537291
C        4.43968249       7.33683986       3.45289350       37      -0.01961946       0.04290988       0.11547610
C        4.52031039      15.84270416      11.76661302       38       0.09666134       0.18130091      -0.12676758
C        2.64642189      12.76862769      10.59680807       39       0.11519100      -0.21949615       0.06223737
C        2.97441471       3.23043286       3.13994404       40      -0.06930952      -0.13997887       0.13263054
C        4.84786980       6.30563715       4.30993275       41      -0.07209536       0.15007761      -0.05129724
C        4.67526270      15.98147437      13.13674832       42      -0.00987712      -0.07035156       0.11677597
C        2.80127635      12.62890190       9.22579007       43      -0.02106467       0.03915769      -0.08100021
C        2.81953889       3.09212496       1.76960361       44       0.03249807       0.09219855      -0.11501437
C        4.69449376       6.44444883       5.68129737       45       0.01244977      -0.02563026       0.08141991
C        5.25691606      17.14631800      13.66131356       46      -0.05163395      -0.04202592       0.12068908
C        3.37921158      11.46196788       8.70025898       47      -0.04153191       0.05105296      -0.00869001
C        2.23886966       1.92687814       1.24503137       48       0.04549768       0.01724276      -0.06030922
C        4.11614171       7.61186241       6.20634870       49       0.06021662      -0.09702548       0.06494609
C        5.65605633      18.18047166      12.82788333       50       0.04218435       0.01486182       0.00500393
C        3.78002433      10.42839095       9.53542220       51       0.02233986       0.02885956      -0.07257421
C        1.84054059       0.89181054       2.07901585       52      -0.01727472       0.05481450       0.00056820
C        3.71549903       8.64526793       5.37312267       53       0.00465082      -0.04762879      -0.02796493
C        3.60875918       3.69362826      11.43589728       54      -0.04556537      -0.11604633      -0.15925342
C        3.60998541      10.54158956      10.92656918       55      -0.04229571       0.08405830       0.17428038
C        3.88806269      15.38075309       3.47159249       56      -0.01789211       0.05480322       0.10385382
C        3.88632687       8.53377752       3.98106991       57       0.00141006      -0.05771235      -0.14889944
N        3.98492024       4.74420238      10.60786060       58       0.12136702       0.34832013       0.44531173
N        3.98630646       9.49199350      11.75375905       59       0.13941368      -0.42550904      -0.39379293
N        3.50757390      14.33249111       4.29980648       60      -0.10978328      -0.42169434      -0.50107580
N        3.50630939       9.58501928       3.15378740       61      -0.09584720       0.31422606       0.37470359
N        3.39110595       3.43731555       8.73766086       62       0.03822163       0.12800008       0.03384376
N        3.39302732      10.79459048      13.62513053       63       0.03281477      -0.08399588      -0.05884272
N        4.10495813      15.63488115       6.16864542       64      -0.03414541      -0.09666008       0.05630124
N        4.10240329       8.27809427       1.28259343       65      -0.07655019       0.15393987      -0.02960306
Cl       2.18558431       7.38791019       9.34658563       66      -0.14605254       0.00373457      -0.01140018
Cl       2.18685430       6.84340160      13.01436599       67      -0.14730093      -0.00023229       0.01040211
Cl       5.31229110      11.68625711       5.56328426       68       0.14377448      -0.00261896       0.00347311
Cl       5.31052472      12.23250388       1.89354525       69       0.14530793      -0.00312227      -0.01112326
O        4.31000967      15.73456258       8.88716910       70      -0.11489520      -0.24146207       0.34476683
O        6.17718139      12.87367540      13.47868810       71      -0.05742685       0.17641257      -0.42963356
O        3.18738995       3.33730544       6.02209446       72       0.04804325       0.16784404      -0.42846349
O        1.31858226       6.19766246       1.43097666       73       0.00929694      -0.09382743       0.42819208
74
Lattice="3.74376839 0.0 0.0 1.8759477468989834 14.376650433026228 0.0 1.8784501025433735 4.695887612378685 14.908954217134971" Properties=species:S:1:pos:R:3:spacegroup_kinds:I:1:forces:R:3 spacegroup="P 1" unit_cell=conventional occupancy="_JSON {\"0\": {\"Cd\": 1}, \"1\": {\"Cd\": 1}, \"2\": {\"H\": 1}, \"3\": {\"H\": 1}, \"4\": {\"H\": 1}, \"5\": {\"H\": 1}, \"6\": {\"H\": 1}, \"7\": {\"H\": 1}, \"8\": {\"H\": 1}, \"9\": {\"H\": 1}, \"10\": {\"H\": 1}, \"11\": {\"H\": 1}, \"12\": {\"H\": 1}, \"13\": {\"H\": 1}, \"14\": {\"H\": 1}, \"15\": {\"H\": 1}, \"16\": {\"H\": 1}, \"17\": {\"H\": 1}, \"18\": {\"H\": 1}, \"19\": {\"H\": 1}, \"20\": {\"H\": 1}, \"21\": {\"H\": 1}, \"22\": {\"H\": 1}, \"23\": {\"H\": 1}, \"24\": {\"H\": 1}, \"25\": {\"H\": 1}, \"26\": {\"C\": 1}, \"27\": {\"C\": 1}, \"28\": {\"C\": 1}, \"29\": {\"C\": 1}, \"30\": {\"C\": 1}, \"31\": {\"C\": 1}, \"32\": {\"C\": 1}, \"33\": {\"C\": 1}, \"34\": {\"C\": 1}, \"35\": {\"C\": 1}, \"36\": {\"C\": 1}, \"37\": {\"C\": 1}, \"38\": {\"C\": 1}, \"39\": {\"C\": 1}, \"40\": {\"C\": 1}, \"41\": {\"C\": 1}, \"42\": {\"C\": 1}, \"43\": {\"C\": 1}, \"44\": {\"C\": 1}, \"45\": {\"C\": 1}, \"46\": {\"C\": 1}, \"47\": {\"C\": 1}, \"48\": {\"C\": 1}, \"49\": {\"C\": 1}, \"50\": {\"C\": 1}, \"51\": {\"C\": 1}, \"52\": {\"C\": 1}, \"53\": {\"C\": 1}, \"54\": {\"C\": 1}, \"55\": {\"C\": 1}, \"56\": {\"C\": 1}, \"57\": {\"C\": 1}, \"58\": {\"N\": 1}, \"59\": {\"N\": 1}, \"60\": {\"N\": 1}, \"61\": {\"N\": 1}, \"62\": {\"N\": 1}, \"63\": {\"N\": 1}, \"64\": {\"N\": 1}, \"65\": {\"N\": 1}, \"66\": {\"Cl\": 1}, \"67\": {\"Cl\": 1}, \"68\": {\"Cl\": 1}, \"69\": {\"Cl\": 1}, \"70\": {\"O\": 1}, \"71\": {\"O\": 1}, \"72\": {\"O\": 1}, \"73\": {\"O\": 1}}" energy=-494.8751525878906 free_energy=-494.8751525878906 stress="0.0012680349173024297 -9.17863508220762e-05 -7.327228377107531e-05 -9.17863508220762e-05 0.004406549036502838 0.00029212728259153664 -7.327228377107531e-05 0.00029212728259153664 -0.0052077192813158035" pbc="T T T"
Cd       4.09059842       7.11674270      11.17904174        0       0.03210030       0.00744083       0.00752643
Cd       3.40408824      11.96025407       3.72589612        1      -0.02697079      -0.00750788       0.00491299
H        4.17122750       5.37078537       8.64382622        2       0.02474435      -0.02889775       0.01869199
H        4.17338175       8.86212494      13.71767041        3       0.02152295       0.02826430      -0.02802263
H        3.32208703      13.70431481       6.26113070        4      -0.02845288      -0.02146675       0.01382272
H        3.32025392      10.21287387       1.19098128        5      -0.03649257      -0.01391263      -0.01762666
H        4.07507810      14.94624800      11.33591736        6       0.00048451       0.07879159      -0.02092695
H        5.94567210      13.66625574      11.02409199        7       0.00548463      -0.08679932       0.01310156
H        3.41998460       4.12824813       3.56817975        8      -0.02916774      -0.11311057       0.00895737
H        1.54789501       5.40877112       3.87894210        9      -0.02006665       0.09567028      -0.00878010
H        4.34403626      15.18040709      13.79758966       10       0.00637637      -0.06298998       0.03884839
H        6.21421634      13.43032430       8.56302200       11       0.00612931       0.06277405      -0.03313584
H        3.14985937       3.89524949       1.10711367       12      -0.01061875       0.05681826      -0.02992135
H        1.28081863       5.64473024       6.34196953       13      -0.00984651      -0.06673520       0.04108641
H        5.39945337      17.24336033      14.73875843       14      -0.01398957      -0.04056685       0.00329790
H        3.52170775      11.36609545       7.62190147       15      -0.01288047       0.03910416      -0.05491659
H        2.09246114       1.83165655       0.16645993       16       0.01347010       0.03428378      -0.04454828
H        3.97201712       7.70900942       7.28241781       17       0.01277565      -0.03515246       0.05310366
H        4.24114189       4.70952587      13.22721778       18      -0.00317284      -0.03318489      -0.00322824
H        4.24035644       9.52382822       9.13323950       19       0.00160521       0.01819462      -0.00215191
H        3.25190625      14.36587141       1.67770347       20      -0.00515335       0.00509261      -0.01036052
H        3.25224881       9.54985105       5.77219554       21      -0.00055826      -0.01857634       0.00030214
H        3.32038624       3.38712580       7.68659443       22      -0.01852931      -0.05548341      -0.06698775
H        3.32262284      10.84730957      14.67565501       23      -0.01156762       0.04430138       0.02469729
H        4.17328320      15.68758729       7.21954287       24       0.02541597       0.04212780       0.00886124
H        4.17270896       8.22775620       0.22957088       25       0.00806150      -0.04964262      -0.03709990
C        3.86709122       4.55976777       9.31486736       26      -0.02790757      -0.38326237      -0.04439241
C        3.86888983       9.67278179      13.04615944       27      -0.05936916       0.44412678       0.11819743
C        3.62847235      14.51283700       5.59097795       28       0.00064671       0.44691429       0.09796181
C        3.62178865       9.40026412       1.85938026       29       0.07105727      -0.40584865      -0.04686320
C        4.79523160      16.73694251       9.46269347       30       0.18518201       0.28653723      -0.26708087
C        2.92238645      11.87344504      12.89856073       31       0.12598431      -0.26611671       0.34681317
C        2.69211652       2.33922790       5.43945418       32      -0.03978878      -0.31649649       0.51586193
C        4.56492975       7.20100829       2.00670220       33       0.04423621       0.11796509      -0.33451381
C        4.92904678      16.87505042      10.90944706       34      -0.05669294      -0.00015527      -0.11345375
C        3.05444080      11.73653869      11.45292749       35      -0.03947757       0.02811256       0.04253796
C        2.56399482       2.20044549       3.99632799       36      -0.01516670      -0.06052111       0.02649295
C        4.43887830       7.33814897       3.45313969       37      -0.03111306       0.05729683      -0.09161577
C        4.52030131      15.84545736      11.76420828       38       0.02640694       0.02583976       0.03771334
C        2.64649905      12.76610757      10.59610817       39       0.02740672      -0.02860956       0.01697634
C        2.97159180       3.22840529       3.14067352       40       0.03170651       0.06706746      -0.06301889
C        4.84518982       6.30830278       4.30724814       41       0.00043567      -0.00494759       0.10711923
C        4.67371278      15.98093965      13.13731365       42      -0.00500831      -0.04747623       0.01329836
C        2.79971801      12.62981224       9.22377322       43      -0.01763913       0.04884800      -0.05182157
C        2.81946339       3.09442608       1.76708413       44      -0.00652102      -0.00020278      -0.01148331
C        4.69290591       6.44473790       5.68224825       45       0.03830857      -0.04807661      -0.05760391
C        5.25473040      17.14582890      13.66137666       46      -0.01707537       0.01352523       0.09254664
C        3.37724660      11.46385022       8.69764750       47       0.00237836      -0.02908142       0.00197370
C        2.23929327       1.92804666       1.24235806       48       0.03155424       0.02238439      -0.02675767
C        4.11666006       7.61141326       6.20657928       49       0.00310689      -0.01655006       0.05016905
C        5.65553267      18.18062045      12.82673398       50      -0.00460334      -0.05989062       0.01780953
C        3.77922053      10.42934530       9.53288257       51      -0.02240393       0.09826611       0.04204009
C        1.83948255       0.89302915       2.07727095       52       0.01288723       0.08449529       0.05773309
C        3.71400455       8.64494614       5.37162306       53       0.01413487      -0.04609641       0.01020677
C        3.60652845       3.69172625      11.43350465       54       0.06505812       0.11193143       0.03430278
C        3.60867894      10.54368918      10.92825144       55       0.03201561      -0.10271817      -0.08331650
C        3.88712704      15.38179429       3.47246715       56      -0.07444869      -0.05915261      -0.06910968
C        3.88600229       8.53224962       3.97905409       57      -0.08376098       0.13305324      -0.03838739
N        3.98535668       4.74661798      10.61068633       58       0.04098146       0.18652296       0.07732114
N        3.98429335       9.48958191      11.75166409       59       0.09566902      -0.28137514      -0.18608043
N        3.50461257      14.33028801       4.29698244       60      -0.02551215      -0.25215992      -0.22208434
N        3.50437322       9.58777607       3.15428098       61      -0.02172957       0.13525942       0.16701320
N        3.39191220       3.43843412       8.73566921       62      -0.06219149      -0.04636091       0.03244352
N        3.39321718      10.79448210      13.62467875       63      -0.04934570       0.05265331       0.04334033
N        4.10387648      15.63308770       6.16897002       64       0.05392450       0.13346213      -0.00720263
N        4.10054698       8.27942874       1.28003292       65      -0.00534952      -0.01040596      -0.00554192
Cl       2.18318736       7.38605953       9.34571326       66      -0.14576522       0.00668748      -0.01414923
Cl       2.18410894       6.84472062      13.01404377       67      -0.14658384      -0.00018405       0.01122003
Cl       5.31509719      11.68843779       5.56336974       68       0.13571109      -0.00460443       0.00540695
Cl       5.31312113      12.23220516       1.89317167       69       0.13655473      -0.00265144      -0.01649822
O        4.30795400      15.73169523       8.88977605       70      -0.05406422      -0.06869189       0.33953473
O        6.17546132      12.87651578      13.47575380       71      -0.01516929       0.04088301      -0.40894973
O        3.18586064       3.33961221       6.01914400       72      -0.01280434       0.05425134      -0.43527752
O        1.31808795       6.19543734       1.43394573       73      -0.06655883       0.06671640       0.40966505
74
Lattice="3.74376839 0.0 0.0 1.8759477468989834 14.376650433026228 0.0 1.8784501025433735 4.695887612378685 14.908954217134971" Properties=species:S:1:pos:R:3:spacegroup_kinds:I:1:forces:R:3 spacegroup="P 1" unit_cell=conventional occupancy="_JSON {\"0\": {\"Cd\": 1}, \"1\": {\"Cd\": 1}, \"2\": {\"H\": 1}, \"3\": {\"H\": 1}, \"4\": {\"H\": 1}, \"5\": {\"H\": 1}, \"6\": {\"H\": 1}, \"7\": {\"H\": 1}, \"8\": {\"H\": 1}, \"9\": {\"H\": 1}, \"10\": {\"H\": 1}, \"11\": {\"H\": 1}, \"12\": {\"H\": 1}, \"13\": {\"H\": 1}, \"14\": {\"H\": 1}, \"15\": {\"H\": 1}, \"16\": {\"H\": 1}, \"17\": {\"H\": 1}, \"18\": {\"H\": 1}, \"19\": {\"H\": 1}, \"20\": {\"H\": 1}, \"21\": {\"H\": 1}, \"22\": {\"H\": 1}, \"23\": {\"H\": 1}, \"24\": {\"H\": 1}, \"25\": {\"H\": 1}, \"26\": {\"C\": 1}, \"27\": {\"C\": 1}, \"28\": {\"C\": 1}, \"29\": {\"C\": 1}, \"30\": {\"C\": 1}, \"31\": {\"C\": 1}, \"32\": {\"C\": 1}, \"33\": {\"C\": 1}, \"34\": {\"C\": 1}, \"35\": {\"C\": 1}, \"36\": {\"C\": 1}, \"37\": {\"C\": 1}, \"38\": {\"C\": 1}, \"39\": {\"C\": 1}, \"40\": {\"C\": 1}, \"41\": {\"C\": 1}, \"42\": {\"C\": 1}, \"43\": {\"C\": 1}, \"44\": {\"C\": 1}, \"45\": {\"C\": 1}, \"46\": {\"C\": 1}, \"47\": {\"C\": 1}, \"48\": {\"C\": 1}, \"49\": {\"C\": 1}, \"50\": {\"C\": 1}, \"51\": {\"C\": 1}, \"52\": {\"C\": 1}, \"53\": {\"C\": 1}, \"54\": {\"C\": 1}, \"55\": {\"C\": 1}, \"56\": {\"C\": 1}, \"57\": {\"C\": 1}, \"58\": {\"N\": 1}, \"59\": {\"N\": 1}, \"60\": {\"N\": 1}, \"61\": {\"N\": 1}, \"62\": {\"N\": 1}, \"63\": {\"N\": 1}, \"64\": {\"N\": 1}, \"65\": {\"N\": 1}, \"66\": {\"Cl\": 1}, \"67\": {\"Cl\": 1}, \"68\": {\"Cl\": 1}, \"69\": {\"Cl\": 1}, \"70\": {\"O\": 1}, \"71\": {\"O\": 1}, \"72\": {\"O\": 1}, \"73\": {\"O\": 1}}" energy=-494.8937072753906 free_energy=-494.8937072753906 stress="0.0012101911706849933 6.603366637136787e-05 -6.555454456247389e-05 6.603366637136787e-05 0.004157058894634247 0.0001521833910373971 -6.555454456247389e-05 0.0001521833910373971 -0.00375623838044703" pbc="T T T"
Cd       4.08896471       7.11568821      11.17804175        0       0.02988661       0.00865311       0.00783660
Cd       3.40209112      11.96080225       3.72614292        1      -0.01527489      -0.01753819       0.00064205
H        4.17117127       5.37057005       8.64205576        2      -0.00202563      -0.08853518       0.04484843
H        4.17222200       8.86365203      13.71790730        3       0.01938967       0.03569938      -0.02768038
H        3.32059854      13.70568449       6.26022375        4      -0.01271062       0.02547547      -0.01731186
H        3.32033038      10.21338537       1.18944914        5      -0.03232929      -0.05480982       0.00019987
H        4.07357104      14.94820763      11.33325332        6       0.00352676       0.08025044      -0.01847032
H        5.94532651      13.66466956      11.02346098        7      -0.01122430      -0.05028999       0.02418727
H        3.41869704       4.12589741       3.56734765        8      -0.00367881      -0.04865366       0.03509728
H        1.54571789       5.41056094       3.87643913        9      -0.01701199       0.08756158      -0.00261682
H        4.34175245      15.17999164      13.79736328       10       0.00229379      -0.07441685       0.03580159
H        6.21319666      13.43294412       8.56026192       11       0.02814374       0.00570333       0.00831623
H        3.14925370       3.89761327       1.10430229       12      -0.02804437       0.00618746       0.01773290
H        1.27835931       5.64382687       6.34207642       13      -0.00496782      -0.06930743       0.02872275
H        5.39809449      17.24324919      14.73717215       14      -0.00833381      -0.03415283       0.06765664
H        3.51986599      11.36851793       7.61918824       15      -0.01387050       0.02588423      -0.00098416
H        2.09091635       1.83378794       0.16388221       16       0.01840893       0.03135216      -0.02217156
H        3.97065206       7.70916592       7.28235363       17       0.01724954      -0.03930740       0.04172917
H        4.24023693       4.71028612      13.22506361       18      -0.00756807      -0.05145863       0.00481142
H        4.23881566       9.52484241       9.13246038       19       0.00514136       0.01774088      -0.00391845
H        3.25116657      14.36627328       1.67702687       20      -0.00822853       0.00362074      -0.02117690
H        3.25188136       9.55035864       5.77099072       21      -0.00625145      -0.01519482       0.01007248
H        3.31993133       3.38597746       7.68412814       22      -0.01638407      -0.03953378      -0.05433102
H        3.32152407      10.84936104      14.67473507       23      -0.00811102       0.03465427       0.06424265
H        4.17156464      15.68949963       7.21874616       24       0.02025249       0.02324587       0.05993511
H        4.17191917       8.22735743       0.22675724       25       0.00357607      -0.03669789      -0.00816849
C        3.86416252       4.55685060       9.31224084       26       0.08688180      -0.13863540       0.03050357
C        3.86700782       9.67477546      13.04715891       27      -0.00520177       0.31259304      -0.09553118
C        3.62784285      14.51576958       5.58923096       28      -0.06150730       0.27419621       0.07113859
C        3.62020073       9.39750746       1.85668662       29       0.01451001      -0.19210431       0.19525240
C        4.79441733      16.73952927       9.45988151       30       0.11348166       0.12513673      -0.12866081
C        2.92287812      11.87104644      12.89974353       31       0.01840485      -0.05441090       0.22642207
C        2.69089231       2.33711985       5.44167829       32      -0.00422105      -0.15225168       0.31662029
C        4.56299242       7.20277477       2.00371674       33       0.02404886       0.14264187      -0.09854805
C        4.92673154      16.87629393      10.90798358       34      -0.01160380       0.07449596      -0.13994721
C        3.05267672      11.73572628      11.45228732       35      -0.02730091       0.00841603       0.06228301
C        2.56300546       2.19958059       3.99530250       36      -0.02557591      -0.07266236       0.07173377
C        4.43765617       7.33906277       3.45103893       37      -0.06154890       0.11167783      -0.04080299
C        4.51917064      15.84692760      11.76246893       38       0.00873300      -0.00147805       0.08276431
C        2.64513309      12.76590222      10.59482418       39       0.05509517      -0.08293331       0.00629912
C        2.96984818       3.22929653       3.13938126       40       0.00780128      -0.04030433      -0.03011071
C        4.84371467       6.30929956       4.30691621       41       0.00024337       0.00375542       0.01652975
C        4.67185378      15.97995906      13.13720055       42       0.01161582       0.00727791      -0.03171644
C        2.79906682      12.62988430       9.22134742       43      -0.06382757       0.12459195      -0.01706176
C        2.81903336       3.09510701       1.76592002       44      -0.00084980       0.05064219      -0.07068080
C        4.69194047       6.44359967       5.68122236       45       0.01731758      -0.00635733      -0.00748211
C        5.25265780      17.14542027      13.66195823       46      -0.01240005       0.01897598      -0.02802223
C        3.37534454      11.46410306       8.69671225       47       0.03080056      -0.03848824      -0.06257468
C        2.23875826       1.92943920       1.24031757       48       0.01180430      -0.01879742      -0.00249919
C        4.11618792       7.61073552       6.20639166       49      -0.02041988       0.02511459       0.00306240
C        5.65489089      18.18008191      12.82571926       50      -0.01258621      -0.05173545       0.02295955
C        3.77855600      10.43043299       9.53292507       51      -0.02979723       0.07571263      -0.03177222
C        1.83838888       0.89359909       2.07632915       52       0.01733696       0.10965928      -0.00990592
C        3.71241242       8.64514543       5.37031912       53       0.04308710      -0.09410881       0.06891859
C        3.60616621       3.69369339      11.43159361       54       0.03993402       0.04716396       0.09057557
C        3.60676251      10.54236107      10.92665216       55       0.03315117      -0.08568847      -0.03602509
C        3.88478717      15.38072839       3.47069956       56      -0.04092605      -0.02124801      -0.05832671
C        3.88387535       8.53431535       3.97786395       57      -0.05031300       0.05194903      -0.01248787
N        3.98556340       4.74800195      10.60913831       58       0.01010062       0.12845814      -0.00398046
N        3.98303274       9.48688414      11.74884961       59       0.05596233      -0.18361795       0.04728872
N        3.50210356      14.32763536       4.29405801       60       0.01498719      -0.13902028      -0.08579269
N        3.50178502       9.58991865       3.15648251       61       0.00091611       0.07380877      -0.13578540