82
Lattice="8.04931192 0.0 0.0 2.181310617145768 7.748117038740343 0.0 1.5563985167392613 1.1787737617698628 12.784416281274714" Properties=species:S:1:pos:R:3:spacegroup_kinds:I:1:forces:R:3 spacegroup="P 1" unit_cell=conventional occupancy="_JSON {\"0\": {\"Zn\": 1}, \"1\": {\"Zn\": 1}, \"2\": {\"Zn\": 1}, \"3\": {\"Zn\": 1}, \"4\": {\"H\": 1}, \"5\": {\"H\": 1}, \"6\": {\"H\": 1}, \"7\": {\"H\": 1}, \"8\": {\"H\": 1}, \"9\": {\"H\": 1}, \"10\": {\"H\": 1}, \"11\": {\"H\": 1}, \"12\": {\"H\": 1}, \"13\": {\"H\": 1}, \"14\": {\"H\": 1}, \"15\": {\"H\": 1}, \"16\": {\"H\": 1}, \"17\": {\"H\": 1}, \"18\": {\"H\": 1}, \"19\": {\"H\": 1}, \"20\": {\"H\": 1}, \"21\": {\"H\": 1}, \"22\": {\"H\": 1}, \"23\": {\"H\": 1}, \"24\": {\"H\": 1}, \"25\": {\"H\": 1}, \"26\": {\"H\": 1}, \"27\": {\"H\": 1}, \"28\": {\"C\": 1}, \"29\": {\"C\": 1}, \"30\": {\"C\": 1}, \"31\": {\"C\": 1}, \"32\": {\"C\": 1}, \"33\": {\"C\": 1}, \"34\": {\"C\": 1}, \"35\": {\"C\": 1}, \"36\": {\"C\": 1}, \"37\": {\"C\": 1}, \"38\": {\"C\": 1}, \"39\": {\"C\": 1}, \"40\": {\"C\": 1}, \"41\": {\"C\": 1}, \"42\": {\"C\": 1}, \"43\": {\"C\": 1}, \"44\": {\"C\": 1}, \"45\": {\"C\": 1}, \"46\": {\"C\": 1}, \"47\": {\"C\": 1}, \"48\": {\"C\": 1}, \"49\": {\"C\": 1}, \"50\": {\"C\": 1}, \"51\": {\"C\": 1}, \"52\": {\"C\": 1}, \"53\": {\"C\": 1}, \"54\": {\"C\": 1}, \"55\": {\"C\": 1}, \"56\": {\"N\": 1}, \"57\": {\"N\": 1}, \"58\": {\"N\": 1}, \"59\": {\"N\": 1}, \"60\": {\"O\": 1}, \"61\": {\"O\": 1}, \"62\": {\"O\": 1}, \"63\": {\"O\": 1}, \"64\": {\"O\": 1}, \"65\": {\"O\": 1}, \"66\": {\"O\": 1}, \"67\": {\"O\": 1}, \"68\": {\"O\": 1}, \"69\": {\"O\": 1}, \"70\": {\"O\": 1}, \"71\": {\"O\": 1}, \"72\": {\"O\": 1}, \"73\": {\"O\": 1}, \"74\": {\"O\": 1}, \"75\": {\"O\": 1}, \"76\": {\"O\": 1}, \"77\": {\"O\": 1}, \"78\": {\"O\": 1}, \"79\": {\"O\": 1}, \"80\": {\"O\": 1}, \"81\": {\"O\": 1}}" energy=-543.2245483398438 free_energy=-543.2245483398438 stress="-0.005329100880771875 0.0026957676745951176 -0.0008173072128556669 0.0026957676745951176 -0.007275920826941729 -0.0002229439269285649 -0.0008173072128556669 -0.0002229439269285649 0.003669867292046547" pbc="T T T"
Zn       6.09137783       4.33025020      11.17201178        0       0.00713313       0.52530241       0.07648913
Zn       6.72540744       4.79039971       7.99143859        1      -0.44073850       0.53646392      -0.15964411
Zn       5.68988061       4.60432428       1.58463439        2       0.19567105      -0.41011503      -0.00395380
Zn       5.05925922       4.10408575       4.81025964        3       0.42916840      -0.00414376      -0.09814729
H        2.60241178       3.68928015       0.07905443        4       0.02687212      -0.25330055      -0.45117188
H        6.75795234       6.87134065       6.33420981        5      -0.01483836      -0.36837372      -0.05697261
H        9.18363061       5.22934154      12.74474778        6       0.25738177      -0.10071355      -0.25715160
H        5.06052825       2.09703049       6.47016152        7      -0.95562136       0.38407871      -1.25125051
H        3.35278425       4.22214968      11.60788568        8       0.21946028       0.04266370      -0.00459550
H        7.55016754       7.40658132       7.56503570        9       0.32448098       0.39172545       0.48573312
H        8.38884949       4.72206818       1.19946519       10       1.80159855       0.12745351       0.75092459
H        4.19516184       1.52329459       5.22786280       11      -0.30117625      -0.66802275      -0.52140617
H        5.72562445       6.64616660      10.00520306       12       0.05516078       0.30617335       0.19585688
H        4.59282453       5.81624419       9.14298374       13       0.41158342       0.03018975       0.08720285
H        6.08131483       2.28633561       2.72531761       14       0.03873008       0.57783383       0.52793586
H        7.17370030       3.10058928       3.66689678       15      -0.01950029       0.04652268      -0.01472783
H        2.89034947       2.30021797      10.14997466       16      -0.15008882       0.06333260      -0.14269225
H        9.55712925       7.40491770       9.04282868       17      -0.04170459      -1.16390455      -1.86094856
H        8.91588815       6.59663554       2.62741100       18      -0.03653755       0.01327846       0.30360079
H        2.23507109       1.56799496       3.75905802       19       0.09646656       0.06251068       0.41859961
H        3.26050214       0.89724305       8.14973560       20       0.46427697      -0.23701976       0.06526719
H       10.80131031       6.58907889      11.01203608       21       0.26136881      -0.24308437       0.14504129
H        8.52470938       8.03282794       4.64444285       22      -0.18550290       0.35533166       0.03819865
H        0.95789722       2.34686541       1.72987267       23       0.13158336      -0.33751047       0.19435313
H        1.97538362       1.36474902       6.04507158       24       0.17836495      -0.44622892      -0.38720897
H        9.18280108       6.79585142       0.32907424       25      -0.55645007       0.38281822      -0.73760009
H        9.81990261       7.56049834       6.71007372       26       0.01494661       0.44617635       0.93371153
H        2.64529968       2.14707346      12.45167547       27       0.14394914      -0.25100708       0.29592660
C        8.98845143       4.29238321      10.36085228       28       0.25049740      -0.26499048      -0.29250494
C        5.98201018       2.00152836       8.83558548       29       0.42560729       0.08464164      -1.09572470
C        2.82854139       4.66053506       2.42017034       30      -1.02596784      -0.63854831      -1.57262111
C        5.77235114       6.90293157       3.96796289       31       0.43946493      -0.53963083       0.20673674
C        9.34134115       3.47461121       9.15551969       32       2.17536473      -1.17002821       2.05137801
C        6.69345979       1.45564310      10.03305777       33       0.00549802      -2.60484886      -2.74148130
C        2.39573818       5.47103308       3.58583267       34       2.24215937      -1.24760485       1.87692511
C        5.09265825       7.49805009       2.77717809       35       0.52110219      -0.99160814      -0.31165546
C        2.32334467       2.47433231       9.22967350       36      -0.69002223       1.25767708       0.69040537
C        9.55133978       7.94189931       9.92432016       37      -0.20229018       1.81259704       2.16006660
C        9.45904646       6.41505303       3.56424004       38      -0.79338002       1.49939907      -0.44936877
C        2.25367833       0.96525458       2.86564813       39      -0.94568092       0.55144799      -0.85348725
C        2.56580470       1.72073370       8.11409659       40      -0.21823889      -0.65806222      -0.47421423
C       10.24924179       7.51589317      11.04159772       41      -0.68528491       0.79888952      -0.11644962
C        9.27194044       7.25647674       4.67596766       42       0.44027609      -1.50182128       0.24526680
C        1.51586480       1.39888093       1.74821775       43       0.76098770      -0.42994785      -0.33683363
C        1.83311166       1.91670311       6.95013199       44      -1.91516876       2.09447575      -0.01866511
C       10.17932043       8.31958950      12.20447688       45       2.03228498      -2.37824202       1.17613077
C        9.99896242       6.96043135       5.85532672       46      -1.91567433       1.85507572      -1.57773256
C        1.60608869       0.62369321       0.57524722       47      -1.07468557       1.51643324      -0.29932025
C        8.86346350       2.94133229       6.95264422       48       1.92132282      -1.12422955       1.33264780
C        7.34385663       1.74312745      12.22241851       49      -1.33067322       1.94565260      -1.02021360
C        2.89419524       6.00619672       5.82080761       50       1.76738250      -1.78862524      -0.02195537
C        4.49460992       7.19970366       0.55473732       51       0.26268676      -0.96914643       0.31479555
C        7.99973963       3.24057393       5.79033866       52       1.85214603      -1.24947429      -1.34684706
C        5.71142133       1.50854774       0.61902463       53       0.33789533      -1.83765125      -0.18965134
C        3.78590684       5.72226744       6.99977038       54      -1.54248834       0.21618462       1.70612061
C        6.06782829       7.43197580      12.18004920       55      -0.47185895       2.48408294      -1.93232644
N        8.63022767       3.65437007       8.09434072       56      -1.59411824       0.27262428      -2.81563187
N        6.71960113       2.18584385      11.08277470       57      -0.02417050       1.96184397       2.96791315
N        3.16555729       5.26473251       4.72836296       58      -0.60039592       0.22075959      -1.24076819
N        5.10696935       6.72502237       1.64918112       59       0.13591710       0.45236731       1.07819700
O        7.92407912       4.96363264      10.29466565       60      -1.14560747       0.32225248      -0.11775186
O        5.68439036       3.23794217       8.89416131       61      -0.19231023       0.16867568       0.15332939
O        3.90473986       3.96238945       2.49070828       62      -0.66368592       0.84300470       0.11285704
O        6.15120829       5.67311695       3.86225831       63      -0.50699985       0.62250936       0.09203506
O        9.71667823       4.28704903      11.38882674       64       0.76049739      -0.35672820       0.38826025
O        5.82129281       1.31493832       7.75634623       65       0.08096476       0.09026411       1.02602816
O        2.06334511       4.66128970       1.35615320       66       1.08804667       0.15501165       1.45249331
O        5.94622902       7.58927185       5.02901400       67      -0.20651364       0.11311713      -0.48984605
O        6.94929928       3.87138441       6.04475059       68      -1.49995565       0.73531270       0.22758693
O        5.39646238       2.71032648       0.38417445       69      -0.11022821       0.73823923      -0.47971398
O        4.83844627       5.05078458       6.75166065       70       0.31630179       0.18863997       0.04572463
O        6.39088964       6.25190924      12.42355797       71       0.28747633      -1.77674556       0.50223124
O        8.38366141       2.81709415       4.63494883       72      -0.48098147       0.45105979       0.92989337
O        5.98357995       0.98622357       1.73521749       73       0.02393691       0.61214387       0.49061120
O        3.37216269       6.10696038       8.17644600       74       0.96888387      -0.54891616      -1.83802104
O        5.76813986       7.90446931      11.01507364       75       0.23347129      -0.51340777       1.14460886
O        4.26064900       4.32325173      12.00929271       76      -0.02920970       0.19625969       0.27088702
O        7.28354054       6.57134053       7.13421138       77      -0.28275782      -0.47357053      -0.17979105
O        7.54773680       4.60431568       0.77747869       78      -2.35716724       0.00609099      -0.38775122
O        4.49471689       2.36086159       5.61450273       79       1.30116153       0.29497349       1.82922196
O        5.53959080       5.75979350       9.56143159       80      -0.26185998      -0.64990747      -0.24120039
O        6.25782972       3.18731535       3.21824862       81      -0.21999618      -0.65640229      -0.60219526
82
Lattice="8.04931192 0.0 0.0 2.181310617145768 7.748117038740343 0.0 1.5563985167392613 1.1787737617698628 12.784416281274714" Properties=species:S:1:pos:R:3:spacegroup_kinds:I:1:forces:R:3 spacegroup="P 1" unit_cell=conventional occupancy="_JSON {\"0\": {\"Zn\": 1}, \"1\": {\"Zn\": 1}, \"2\": {\"Zn\": 1}, \"3\": {\"Zn\": 1}, \"4\": {\"H\": 1}, \"5\": {\"H\": 1}, \"6\": {\"H\": 1}, \"7\": {\"H\": 1}, \"8\": {\"H\": 1}, \"9\": {\"H\": 1}, \"10\": {\"H\": 1}, \"11\": {\"H\": 1}, \"12\": {\"H\": 1}, \"13\": {\"H\": 1}, \"14\": {\"H\": 1}, \"15\": {\"H\": 1}, \"16\": {\"H\": 1}, \"17\": {\"H\": 1}, \"18\": {\"H\": 1}, \"19\": {\"H\": 1}, \"20\": {\"H\": 1}, \"21\": {\"H\": 1}, \"22\": {\"H\": 1}, \"23\": {\"H\": 1}, \"24\": {\"H\": 1}, \"25\": {\"H\": 1}, \"26\": {\"H\": 1}, \"27\": {\"H\": 1}, \"28\": {\"C\": 1}, \"29\": {\"C\": 1}, \"30\": {\"C\": 1}, \"31\": {\"C\": 1}, \"32\": {\"C\": 1}, \"33\": {\"C\": 1}, \"34\": {\"C\": 1}, \"35\": {\"C\": 1}, \"36\": {\"C\": 1}, \"37\": {\"C\": 1}, \"38\": {\"C\": 1}, \"39\": {\"C\": 1}, \"40\": {\"C\": 1}, \"41\": {\"C\": 1}, \"42\": {\"C\": 1}, \"43\": {\"C\": 1}, \"44\": {\"C\": 1}, \"45\": {\"C\": 1}, \"46\": {\"C\": 1}, \"47\": {\"C\": 1}, \"48\": {\"C\": 1}, \"49\": {\"C\": 1}, \"50\": {\"C\": 1}, \"51\": {\"C\": 1}, \"52\": {\"C\": 1}, \"53\": {\"C\": 1}, \"54\": {\"C\": 1}, \"55\": {\"C\": 1}, \"56\": {\"N\": 1}, \"57\": {\"N\": 1}, \"58\": {\"N\": 1}, \"59\": {\"N\": 1}, \"60\": {\"O\": 1}, \"61\": {\"O\": 1}, \"62\": {\"O\": 1}, \"63\": {\"O\": 1}, \"64\": {\"O\": 1}, \"65\": {\"O\": 1}, \"66\": {\"O\": 1}, \"67\": {\"O\": 1}, \"68\": {\"O\": 1}, \"69\": {\"O\": 1}, \"70\": {\"O\": 1}, \"71\": {\"O\": 1}, \"72\": {\"O\": 1}, \"73\": {\"O\": 1}, \"74\": {\"O\": 1}, \"75\": {\"O\": 1}, \"76\": {\"O\": 1}, \"77\": {\"O\": 1}, \"78\": {\"O\": 1}, \"79\": {\"O\": 1}, \"80\": {\"O\": 1}, \"81\": {\"O\": 1}}" energy=-542.0472412109375 free_energy=-542.0472412109375 stress="0.002789520425722003 -0.00040661002276465297 -0.0005824801046401262 -0.00040661002276465297 -0.0074585615657269955 0.0010971738956868649 -0.0005824801046401262 0.0010971738956868649 0.0031931258272379637" pbc="T T T"
Zn       6.07042260       4.35744908      11.19217830        0       0.38039330       0.48190272       0.05694202
Zn       6.72420643       4.80262924       7.96684272        1      -0.40782154       0.61237907      -0.22932740
Zn       5.68373416       4.63044780       1.59513550        2       0.13608618      -0.59444284       0.04071762
Zn       5.07529161       4.11689282       4.79376783        3       0.40587550      -0.26591730       0.07332167
H        2.62572141       3.68238862       0.10517943        4      -0.17456272      -0.16934477      -0.33636916
H        6.77547421       6.89970805       6.34597427        5      -0.12235782      -0.58055538      -0.26221535
H        9.19965615       5.20130301      12.71814334        6      -0.22919750       1.11623931       1.44357824
H        5.08054586       2.09131285       6.47523697        7      -0.89357746       0.26417154      -1.21966457
H        3.32621055       4.20213285      11.58272226        8       1.61686778       0.38542217       0.95156801
H        7.54597688       7.43441456       7.53867071        9       0.55261123       0.67739046       0.88617003
H        8.41021787       4.74675084       1.19124173       10       0.36352700       0.01859686       0.25970224
H        4.21458221       1.51304398       5.21879744       11      -0.20910004      -0.47882798      -0.35750064
H        5.70518201       6.63322037      10.00147906       12       0.46464351       1.73335195       0.92172205
H        4.56921470       5.79280987       9.16680403       13       1.46260977       0.12547529       0.29430223
H        6.05647634       2.27243217       2.73894517       14       0.27314189       1.41647243       0.77868479
H        7.19214281       3.08061979       3.66182864       15      -0.16335623       0.23943618      -0.00494360
H        2.86999609       2.31927901      10.13830128       16       0.22384939      -0.19001204       0.23731416
H        9.55278995       7.39838253       9.05414869       17      -0.02208300      -1.30096936      -1.87891197
H        8.92986809       6.58975507       2.60268167       18      -0.15865198      -0.01168703       0.31954381
H        2.25811318       1.59100440       3.73050528       19       0.07406459       0.48410928       1.27043974
H        3.28741262       0.87012200       8.13755199       20       0.45961636      -0.16036786       0.28185430
H       10.81674226       6.56519247      11.03883305       21       0.14945915      -0.03198472       0.12212960
H        8.51570474       8.05132035       4.62274892       22      -0.13442665       0.18082790       0.06854859
H        0.96369032       2.37092106       1.75198216       23       0.24481931      -0.90613264       0.10053596
H        1.98878894       1.37363299       6.02886792       24       0.17808582      -0.26849973       0.25013933
H        9.16502798       6.80212801       0.33645291       25      -0.23125255       0.19571336      -0.42329159
H        9.79494858       7.55215768       6.70739794       26       0.15519150       0.34134921       0.81016898
H        2.61684847       2.14895997      12.47816890       27       0.12030440      -0.17364895      -0.21771862
C        8.96756441       4.27551244      10.36216626       28       0.11627015      -0.09604508      -1.31935680
C        5.95522228       2.02139749       8.84811767       29       1.82725883      -3.28828669      -1.98872566
C        2.80385402       4.68190683       2.41889454       30       1.37123382      -1.89380693      -1.09306145
C        5.76550103       6.87684543       3.97279591       31       0.60478026      -0.24038517      -0.46921962
C        9.36337480       3.47532679       9.17047826       32       1.36254406      -1.44116616       0.36005998
C        6.71885870       1.43233235      10.02709030       33      -0.56351697      -1.12576044      -1.31201696
C        2.36692985       5.49480559       3.57106478       34       4.26708126      -3.06121111       2.50007439
C        5.11672152       7.47851688       2.76538890       35      -0.41910371       0.95537364       0.94182754
C        2.33689795       2.45284603       9.20732373       36      -1.25288105       2.55472708       2.48385811
C        9.57568426       7.92063075       9.94241134       37      -0.59636509       2.16493082       1.33939123
C        9.44730814       6.39306874       3.55146422       38      -2.32474422       3.39362526      -0.35324660
C        2.24495411       0.96325021       2.88552489       39      -0.64192075      -0.68244302      -2.39692450
C        2.58898628       1.69252957       8.13993072       40      -0.19270840      -1.30068624      -2.25606346
C       10.27089242       7.50370363      11.04626175       41      -0.34403050       0.67260844       0.74378991
C        9.24765482       7.25648140       4.65651046       42       1.28156471      -1.99359345       1.08519268
C        1.49297732       1.38467125       1.75866062       43       1.23820746      -0.10841671      -0.18145007
C        1.85751365       1.89534994       6.97500005       44      -2.65265846       2.33745337      -0.89220309
C       10.19645532       8.32081993      12.20880643       45       1.66328311      -2.13052654       0.79431224
C       10.01292959       6.95103941       5.85652933       46      -3.63928890       3.21543479      -2.44481421
C        1.62148379       0.62898883       0.55893924       47      -1.21792865       1.11648977       0.77670085
C        8.85671400       2.93789618       6.96357041       48       3.14521599      -1.59658134       1.85691404
C        7.36334165       1.75397408      12.23790975       49      -1.20554805       1.31661654      -1.62608206
C        2.91471232       6.03125927       5.80308038       50       1.99521744      -2.36547136       0.03890938
C        4.49479276       7.18642993       0.55932915       51      -0.07559452       0.19962558      -0.02116290
C        8.02805910       3.23570268       5.80125721       52      -0.27950352      -0.05237734      -0.97074312
C        5.73473384       1.49106110       0.63731828       53      -0.33430606      -0.08869904      -0.49784788
C        3.77944002       5.75184172       6.97879369       54       0.78056198      -1.27710605       2.06084061
C        6.07121570       7.42975898      12.19503982       55      -0.56173420       2.50922728      -3.48974180
N        8.65750390       3.67870932       8.08795989       56      -1.42326808       0.04652540      -1.92259407
N        6.73171985       2.19149967      11.09210617       57       0.14639783       1.00441921       1.98063087
N        3.15663334       5.27128011       4.72650175       58      -0.62619519       0.26046509      -1.97954583
N        5.11474431       6.74747958       1.65663923       59       0.31260216      -0.71860915       0.22448340
O        7.92953233       4.97512321      10.30435905       60      -1.59606767       0.28953725      -0.36414805
O        5.70787592       3.22389728       8.90681307       61      -0.88562596       1.99858570       0.08256848
O        3.93091318       3.96334823       2.46668192       62      -2.15234661       1.88742423       0.56117219
O        6.13004013       5.65598042       3.85271030       63      -0.31669867       0.15895149       0.12192900
O        9.69555311       4.27452737      11.36190838       64       1.99593830      -0.39119691       2.22960591
O        5.83607383       1.29192001       7.73283812       65      -0.11238235       1.27657807       2.17477417
O        2.08174640       4.63204863       1.36825976       66      -0.05000812       0.47455108       0.55981004
O        5.96177180       7.56359345       5.01417712       67      -0.26134476       0.47700766       0.04704726
O        6.93982776       3.88091595       6.03574792       68       0.06967649      -0.08256887       0.27769285
O        5.42221091       2.71644544       0.41133615       69       0.12993394      -0.18368694      -0.60551870
O        4.86442727       5.02437832       6.75292288       70      -1.56228256       1.40358460       0.08190461
O        6.38536350       6.25192000      12.41864729       71       0.42414290      -2.17922544       1.00026965
O        8.40054972       2.83489394       4.65904356       72       0.00131591      -0.00290197       0.14483593
O        5.95849549       0.98780477       1.76148548       73       0.26957214       0.12035705       0.92446619
O        3.39323810       6.11303819       8.16385078       74       0.71696818      -0.37203532      -1.87418628
O        5.79728567       7.87638936      10.98697514       75       0.23194914      -0.13761896       2.34846830
O        4.27113031       4.33845773      12.03011332       76      -1.55125713      -0.30901563      -0.86378241
O        7.30879180       6.58607364       7.13005750       77      -0.41196150      -0.65417141      -0.34082645
O        7.52209643       4.63172706       0.79630322       78      -0.22746724      -1.19366789      -1.81270385
O        4.51577988       2.34937512       5.61557828       79       1.15571570       0.26983696       1.54730499
O        5.56270260       5.77284835       9.58225171       80      -1.80097795      -2.44656014      -1.52418828
O        6.27643598       3.21220598       3.22538743       81      -0.34247413      -1.83056188      -0.92611992
82
Lattice="8.04931192 0.0 0.0 2.181310617145768 7.748117038740343 0.0 1.5563985167392613 1.1787737617698628 12.784416281274714" Properties=species:S:1:pos:R:3:spacegroup_kinds:I:1:forces:R:3 spacegroup="P 1" unit_cell=conventional occupancy="_JSON {\"0\": {\"Zn\": 1}, \"1\": {\"Zn\": 1}, \"2\": {\"Zn\": 1}, \"3\": {\"Zn\": 1}, \"4\": {\"H\": 1}, \"5\": {\"H\": 1}, \"6\": {\"H\": 1}, \"7\": {\"H\": 1}, \"8\": {\"H\": 1}, \"9\": {\"H\": 1}, \"10\": {\"H\": 1}, \"11\": {\"H\": 1}, \"12\": {\"H\": 1}, \"13\": {\"H\": 1}, \"14\": {\"H\": 1}, \"15\": {\"H\": 1}, \"16\": {\"H\": 1}, \"17\": {\"H\": 1}, \"18\": {\"H\": 1}, \"19\": {\"H\": 1}, \"20\": {\"H\": 1}, \"21\": {\"H\": 1}, \"22\": {\"H\": 1}, \"23\": {\"H\": 1}, \"24\": {\"H\": 1}, \"25\": {\"H\": 1}, \"26\": {\"H\": 1}, \"27\": {\"H\": 1}, \"28\": {\"C\": 1}, \"29\": {\"C\": 1}, \"30\": {\"C\": 1}, \"31\": {\"C\": 1}, \"32\": {\"C\": 1}, \"33\": {\"C\": 1}, \"34\": {\"C\": 1}, \"35\": {\"C\": 1}, \"36\": {\"C\": 1}, \"37\": {\"C\": 1}, \"38\": {\"C\": 1}, \"39\": {\"C\": 1}, \"40\": {\"C\": 1}, \"41\": {\"C\": 1}, \"42\": {\"C\": 1}, \"43\": {\"C\": 1}, \"44\": {\"C\": 1}, \"45\": {\"C\": 1}, \"46\": {\"C\": 1}, \"47\": {\"C\": 1}, \"48\": {\"C\": 1}, \"49\": {\"C\": 1}, \"50\": {\"C\": 1}, \"51\": {\"C\": 1}, \"52\": {\"C\": 1}, \"53\": {\"C\": 1}, \"54\": {\"C\": 1}, \"55\": {\"C\": 1}, \"56\": {\"N\": 1}, \"57\": {\"N\": 1}, \"58\": {\"N\": 1}, \"59\": {\"N\": 1}, \"60\": {\"O\": 1}, \"61\": {\"O\": 1}, \"62\": {\"O\": 1}, \"63\": {\"O\": 1}, \"64\": {\"O\": 1}, \"65\": {\"O\": 1}, \"66\": {\"O\": 1}, \"67\": {\"O\": 1}, \"68\": {\"O\": 1}, \"69\": {\"O\": 1}, \"70\": {\"O\": 1}, \"71\": {\"O\": 1}, \"72\": {\"O\": 1}, \"73\": {\"O\": 1}, \"74\": {\"O\": 1}, \"75\": {\"O\": 1}, \"76\": {\"O\": 1}, \"77\": {\"O\": 1}, \"78\": {\"O\": 1}, \"79\": {\"O\": 1}, \"80\": {\"O\": 1}, \"81\": {\"O\": 1}}" energy=-540.0186767578125 free_energy=-540.0186767578125 stress="0.004166048020124435 0.003481389954686165 0.001946684904396534 0.003481389954686165 -0.0237099789083004 -0.00040903629269450903 0.001946684904396534 -0.00040903629269450903 0.008174458518624306" pbc="T T T"
Zn       6.09881686       4.33588396      11.17702935        0      -0.01977882       0.50363177       0.05108245
Zn       6.75123074       4.81894824       7.95304541        1      -0.49635530       0.59854645      -0.12387167
Zn       5.67708168       4.61071269       1.57984160        2       0.35733870      -0.40865684       0.12762114
Zn       5.09685864       4.13229212       4.78893071        3       0.30164316      -0.44697452       0.21237144
H        2.64772840       3.69573140       0.07920168        4      -0.36618939       0.06633976       0.08859826
H        6.80314125       6.89888820       6.35674188        5      -0.67529982      -0.38657612      -1.04817784
H        9.18328798       5.22872516      12.69058133        6       0.20591232       1.35102427       2.12218261
H        5.06383537       2.06442222       6.47080911        7      -0.83120471       0.61232561      -1.14257503
H        3.31296837       4.22789847      11.55654941        8       2.01011419       0.29680586       1.37829792
H        7.56254050       7.42961751       7.51286018        9       0.85108620       1.41308105       1.32479286
H        8.40105032       4.76810480       1.21469557       10       1.90804064       0.07682777       0.74891025
H        4.21907469       1.50923293       5.22922163       11      -0.23619081      -0.19558503      -0.46854174
H        5.69136041       6.66298084       9.97579663       12       0.49975666       2.64325190       1.31676245
H        4.54353136       5.76921425       9.15000557       13       2.41785359       0.40426201       0.69824672
H        6.05854874       2.26377440       2.72260741       14       0.20870174       1.22739220       0.78257811
H        7.19140045       3.06311121       3.66270620       15      -0.52225351       0.28946286      -0.28082711
H        2.87550716       2.31135468      10.12028849       16      -0.22924824       0.01002668      -0.19936812
H        9.57496373       7.39355262       9.02900942       17      -0.06185690      -0.30450368      -0.17618024
H        8.90269999       6.60310514       2.60363167       18       0.42393416      -0.28315333       0.88491374
H        2.25605773       1.56235693       3.75822765       19       0.09898314       0.97762346       1.77526522
H        3.31622958       0.86044541       8.12156325       20       0.03601963       0.43143794       0.33202675
H       10.79642811       6.53684573      11.01826766       21       0.01587044       0.69706720       0.24647701
H        8.49913399       8.07725887       4.60730979       22       0.95462239      -0.89382505       0.20241851
H        0.95235970       2.36990841       1.72969057       23       0.37632415      -1.02564621       0.34560910
H        2.00008346       1.36863483       6.03002297       24      -0.06530309      -0.13073835       0.06633604
H        9.17874975       6.78831318       0.36338594       25      -0.49899018       0.53577846      -0.73954022
H        9.82286686       7.57883950       6.69552375       26       0.26374573      -0.13191730       0.33544686
H        2.61211615       2.12693355      12.46537360       27       0.07388952       0.08962359       0.09657367
C        8.94859774       4.26103547      10.38798886       28       1.73256564      -0.97081101      -1.96655738
C        5.97695096       2.04203152       8.86537986       29       2.16614246      -6.48040771      -3.17473125
C        2.81517063       4.68642995       2.44220493       30       0.58435696      -1.88461041      -3.07842922
C        5.79483264       6.86420050       3.98814748       31      -0.73951530       1.39928210      -1.83317184
C        9.36750328       3.44607076       9.15033195       32       0.67301732      -0.00069696       2.67263532
C        6.73982442       1.40638016      10.01666840       33      -1.43912864       1.27029097      -0.77200860
C        2.37542811       5.51025480       3.55316171       34       5.71923161      -4.69590378       3.33442712
C        5.14052720       7.46475027       2.75351099       35      -0.90867823       2.60439253       2.43828607
C        2.31392345       2.46104995       9.18352855       36       0.54560775       1.31941259       3.49727869
C        9.57464907       7.94802772       9.95655879       37       0.55084860      -0.80764759      -0.60454541
C        9.47332027       6.37633298       3.54874279       38      -4.36328650       5.37561321      -0.61037958
C        2.25240986       0.98343658       2.89938517       39      -0.15622079      -2.23111248      -3.23525453
C        2.61130653       1.70319878       8.13425169       40      -0.86305678      -1.68931150      -3.65372157
C       10.29632923       7.52451711      11.04811974       41      -0.51700431       0.43897349       1.17556095