110
Lattice="10.04094172 0.0 0.0 2.1764898362754774 9.79145063015987 0.0 0.8758460816375917 3.489667612176621 11.4315933306588" Properties=species:S:1:pos:R:3:spacegroup_kinds:I:1:forces:R:3 spacegroup="P 1" unit_cell=conventional occupancy="_JSON {\"0\": {\"Cu\": 1}, \"1\": {\"Cu\": 1}, \"2\": {\"Cu\": 1}, \"3\": {\"Cu\": 1}, \"4\": {\"H\": 1}, \"5\": {\"H\": 1}, \"6\": {\"H\": 1}, \"7\": {\"H\": 1}, \"8\": {\"H\": 1}, \"9\": {\"H\": 1}, \"10\": {\"H\": 1}, \"11\": {\"H\": 1}, \"12\": {\"H\": 1}, \"13\": {\"H\": 1}, \"14\": {\"H\": 1}, \"15\": {\"H\": 1}, \"16\": {\"H\": 1}, \"17\": {\"H\": 1}, \"18\": {\"H\": 1}, \"19\": {\"H\": 1}, \"20\": {\"H\": 1}, \"21\": {\"H\": 1}, \"22\": {\"H\": 1}, \"23\": {\"H\": 1}, \"24\": {\"H\": 1}, \"25\": {\"H\": 1}, \"26\": {\"H\": 1}, \"27\": {\"H\": 1}, \"28\": {\"H\": 1}, \"29\": {\"H\": 1}, \"30\": {\"H\": 1}, \"31\": {\"H\": 1}, \"32\": {\"H\": 1}, \"33\": {\"H\": 1}, \"34\": {\"H\": 1}, \"35\": {\"H\": 1}, \"36\": {\"H\": 1}, \"37\": {\"H\": 1}, \"38\": {\"H\": 1}, \"39\": {\"H\": 1}, \"40\": {\"H\": 1}, \"41\": {\"H\": 1}, \"42\": {\"H\": 1}, \"43\": {\"H\": 1}, \"44\": {\"C\": 1}, \"45\": {\"C\": 1}, \"46\": {\"C\": 1}, \"47\": {\"C\": 1}, \"48\": {\"C\": 1}, \"49\": {\"C\": 1}, \"50\": {\"C\": 1}, \"51\": {\"C\": 1}, \"52\": {\"C\": 1}, \"53\": {\"C\": 1}, \"54\": {\"C\": 1}, \"55\": {\"C\": 1}, \"56\": {\"C\": 1}, \"57\": {\"C\": 1}, \"58\": {\"C\": 1}, \"59\": {\"C\": 1}, \"60\": {\"C\": 1}, \"61\": {\"C\": 1}, \"62\": {\"C\": 1}, \"63\": {\"C\": 1}, \"64\": {\"C\": 1}, \"65\": {\"C\": 1}, \"66\": {\"C\": 1}, \"67\": {\"C\": 1}, \"68\": {\"C\": 1}, \"69\": {\"C\": 1}, \"70\": {\"C\": 1}, \"71\": {\"C\": 1}, \"72\": {\"C\": 1}, \"73\": {\"C\": 1}, \"74\": {\"C\": 1}, \"75\": {\"C\": 1}, \"76\": {\"C\": 1}, \"77\": {\"C\": 1}, \"78\": {\"C\": 1}, \"79\": {\"C\": 1}, \"80\": {\"C\": 1}, \"81\": {\"C\": 1}, \"82\": {\"C\": 1}, \"83\": {\"C\": 1}, \"84\": {\"C\": 1}, \"85\": {\"C\": 1}, \"86\": {\"C\": 1}, \"87\": {\"C\": 1}, \"88\": {\"C\": 1}, \"89\": {\"C\": 1}, \"90\": {\"N\": 1}, \"91\": {\"N\": 1}, \"92\": {\"N\": 1}, \"93\": {\"N\": 1}, \"94\": {\"N\": 1}, \"95\": {\"N\": 1}, \"96\": {\"N\": 1}, \"97\": {\"N\": 1}, \"98\": {\"N\": 1}, \"99\": {\"N\": 1}, \"100\": {\"N\": 1}, \"101\": {\"N\": 1}, \"102\": {\"N\": 1}, \"103\": {\"N\": 1}, \"104\": {\"N\": 1}, \"105\": {\"N\": 1}, \"106\": {\"O\": 1}, \"107\": {\"O\": 1}, \"108\": {\"O\": 1}, \"109\": {\"O\": 1}}" energy=-734.03076171875 free_energy=-734.03076171875 stress="-0.003517959965392947 0.00044859980698674917 0.0012572333216667175 0.00044859980698674917 -0.00490084383636713 -0.0005265712970867753 0.0012572333216667175 -0.0005265712970867753 -0.003455153200775385" pbc="T T T"
Cu       4.42201972      10.02337696       7.27027779        0       0.29486847       0.14394665       0.25270149
Cu       8.67073075       3.25715427       4.16067220        1      -0.29899770      -0.13784698      -0.25616086
Cu       5.83673354      11.01214848       9.84916631        2      -0.32881731      -0.02617866      -0.56719828
Cu       7.25641156       2.26877977       1.58215160        3       0.31393206       0.03221205       0.55483639
H        4.27973623       3.85015147       8.83973795        4      -0.02399184       0.01843733      -0.09657836
H        8.81241661       9.43228873       2.59096590        5       0.02437858      -0.02296053       0.08440867
H        4.99549915       5.83310790       7.49962022        6      -0.00363816       0.01762873      -0.01956192
H        8.09613085       7.44786938       3.93013879        7      -0.00579655      -0.03809376       0.00960056
H        5.15099754       5.68300439       5.02529691        8      -0.05180378       0.05955250       0.09643905
H        7.94012876       7.59752845       6.40526094        9       0.07097119      -0.01338099      -0.12486744
H        4.50812898       3.56541980       3.87473099       10      -0.04271816      -0.01118431       0.02094543
H        8.58527460       9.71569489       7.55580407       11       0.03868767       0.01223753      -0.03097655
H        3.82349728       1.34319663       3.91048402       12      -0.07841045       0.02904855       0.06108600
H        9.26913416      11.93808850       7.52140859       13       0.10244152      -0.03097546      -0.17030306
H        5.19838211       8.12081434       5.00689608       14      -0.03022954       0.00338685      -0.07763422
H        7.89408427       5.16232613       6.42317077       15       0.02688958      -0.03229968       0.10190104
H        5.20383792       9.20145267       3.58356509       16      -0.10794929      -0.02550256       0.09894601
H        7.89132494       4.07989761       7.84722608       17       0.04424938       0.00777794      -0.02753835
H       11.56575048      10.00174637       3.74452184       18       0.01275307       0.01854114      -0.03035089
H        1.52519199       3.28043140       7.68401043       19       0.00475857      -0.02662437       0.03079777
H        3.07946810      10.61228529       3.15814213       20      -0.00085268      -0.03321609       0.06219418
H       10.01181162       2.66960022       8.27119827       21       0.01326281       0.03621925      -0.06644486
H        2.59409852      10.89891010       4.84252938       22      -0.02700618      -0.04193689      -0.11849320
H       10.49506162       2.38230821       6.58904422       23       0.03360331       0.00397728       0.06119867
H        3.52899855       6.87518696       3.50247024       24      -0.07998104       0.09738853       0.01121305
H        9.56280109       6.40745737       7.92650453       25       0.10789394      -0.15837902       0.00086707
H        3.36021333       8.20465828       2.34305791       26       0.02348249      -0.03389663       0.00524357
H        9.73044911       5.07762726       9.08691884       27      -0.01334832       0.03248009       0.00093670
H        1.92627585       7.60711496       3.20061090       28       0.03158052      -0.06731731      -0.01501038
H       11.16258137       5.67584011       8.22815537       29       0.07891383       0.07505874       0.03250736
H       11.59143622       8.06854326       5.52671249       30      -0.00378855      -0.01764803       0.05760613
H        1.50144905       5.21229494       5.90451333       31      -0.06434427       0.00606742      -0.06574334
H        3.10879947       7.29216391       5.89504241       32      -0.12662785      -0.00348637      -0.01807820
H        9.98356179       5.99045998       5.53483388       33       0.12957458      -0.01564603       0.02966920
H       10.97350331       8.37252568       7.50280194       34       0.04752098       0.02396987       0.01514588
H        2.11812569       4.90893347       3.92796049       35      -0.04279350      -0.03388815      -0.03119290
H        2.62420272       7.66556476       0.12185901       36      -0.05818291      -0.02179185      -0.06645271
H       10.46781531       5.61737039      11.30931886       37      -0.01159799      -0.03375104       0.01139710
H       10.59052553       7.17325595       1.39011194       38      -0.05160312       0.00858514       0.08482443
H        2.50114764       6.10884788      10.03892827       39       0.05406374       0.00243782      -0.04640575
H        8.73104475       5.87191945       0.33332926       40       0.06101449       0.01827105       0.04484542
H        4.36186256       7.40953816      11.09726300       41      -0.09866145      -0.03252224      -0.03002292
H        9.82953128       8.65522499       9.39592050       42       0.03196861      -0.01045430      -0.07390386
H        3.26157145       4.62506614       2.03506115       43      -0.05013031      -0.00161497       0.05573366
C        3.96240440       2.59754105       7.12102663       44      -0.03956172      -0.39605683       0.20353971
C        9.13099924      10.68536843       4.30953126       45      -0.03728026       0.24253684      -0.22169262
C        4.33536923       3.80271160       7.75149004       46      -0.05767945       0.13916655      -0.09840706
C        8.75691478       9.47849175       3.67892865       47       0.06018846      -0.12403280       0.12666133
C        4.73172160       4.90053494       7.00023000       48       0.03461963       0.08637452       0.03664380
C        8.35891389       8.37983474       4.42937759       49      -0.00062457      -0.00933176      -0.03534992
C        4.79949201       4.82891554       5.60036911       50      -0.08613554      -0.00313880       0.07688600
C        8.29208805       8.45302196       5.82918621       51       0.05691763      -0.05905963      -0.03044738
C        4.43860996       3.65351842       4.95943906       52      -0.05588797       0.02624353       0.04848921
C        8.65282172       9.62825135       6.47070258       53       0.05599207      -0.05382782      -0.05181630
C        3.98082279       2.53525936       5.69150773       54      -0.07995107       0.05176716      -0.00054390
C        9.11039291      10.74539532       5.73801946       55       0.11619674       0.01590352       0.03451365
C        5.74456239      11.15842036       4.97213120       56       0.32385966       0.29089922       0.01873681
C        7.34756889       2.12325763       6.45608643       57      -0.36531734      -0.31315961       0.11324716
C        4.75582420       9.03360796       4.57757513       58       0.07750416       0.23974425       0.15411736
C        8.33332487       4.24753685       6.85412235       59       0.03799437      -0.17811257      -0.25471830
C        3.23457997       8.84567029       4.42041806       60       0.20124991      -0.28624648       0.19540679
C        9.85688333       4.43579918       7.01083968       61      -0.24363025       0.26892015      -0.23276897
C        2.56816569      10.17109995       4.02304147       62      -0.07561413       0.01039331      -0.02614861
C       10.52348965       3.11002450       7.40553157       63       0.04194759       0.02544222       0.10675582
C        2.99950715       7.81893257       3.30229497       64      -0.16930564       0.02383586      -0.07093105
C       10.09339967       5.46183970       8.12803178       65       0.01516368       0.03867612       0.05330781
C        2.62037487       8.26427953       5.70102032       66       0.19604455       0.30071142       0.23827201
C       10.46986051       5.01682790       5.73041329       67      -0.10911784      -0.26190537      -0.26647863
C       11.85743692       8.95139630       7.80210513       68      -0.41558096      -0.18217579       0.24166861
C        1.23581595       4.32857060       3.62680214       69       0.28438488       0.18222916      -0.11172256
C       11.81355037       9.45233314       9.13988693       70      -0.03698525       0.05329086       0.00071633
C        1.27771262       3.82698955       2.28932144       71       0.05768199      -0.02021588       0.01029096
C        2.85942082      10.14032356       9.77286907       72       0.26706970       0.06887980      -0.09891951
C       10.23112506       3.14098534       1.65550294       73      -0.27432093      -0.08054033       0.14794686
C        2.68698695      10.58911418      11.09804727       74      -0.08209360      -0.03459163       0.10347429
C       10.40361675       2.69108070       0.33147730       75       0.20076370       0.11438261      -0.07597918
C       10.68718259       6.82214564       0.36581187       76      -0.04736225      -0.06911553       0.04557221
C        2.40603079       6.45933998      11.06493861       77      -0.07571660      -0.01608519      -0.12096681
C       10.51030124       9.60005955      11.20293306       78       0.15526287       0.06240983      -0.00965017
C        2.58096205       3.67951372       0.22685031       79      -0.05186011       0.00339491       0.01732592
C       10.64015409       9.19330248       9.88533548       80       0.10266377      -0.01320334       0.11613721
C        2.45063887       4.08737998       1.54389351       81      -0.08086655       0.01648122      -0.07667847
C        8.71462727      12.03010314      10.02925082       82      -0.07537216      -0.19220884       0.19729733
C        4.37698621       1.25280069       1.39824705       83       0.07432625       0.18362501      -0.17208692
C        8.17120590       3.43313068      11.13127047       84       0.06158182       0.14511706       0.04701631
C        4.91962117       9.84992338       0.29994922       85      -0.13988712      -0.23613705      -0.16910535
C        5.33830457       6.02589601       1.02846784       86      -0.03391823       0.16831639      -0.15542848
C        7.75370274       7.25781866      10.40281247       87       0.03208217      -0.18046291       0.14480941
C        6.63581070       5.42563201       2.86400648       88       0.03279096       0.11187650      -0.14769553
C        6.45693772       7.85455602       8.56732061       89      -0.11262564      -0.07902253       0.08373326
N        5.08884525      10.14175620       5.45065290       90      -0.09812580      -0.53377557      -0.36364561
N        8.00184525       3.14093958       5.97858971       91       0.08937468       0.52992266       0.37761444
N        2.75981032       9.06951849       6.90972019       92      -0.12940282      -0.29962057      -0.67594546
N       10.33101302       4.21191726       4.52172000       93       0.23397203       0.29547569       0.56247830
N        7.77307182      11.34950616       9.83594641       94      -0.01785778       0.01063097      -0.09801534
N        5.31758375       1.93282598       1.59562220       95       0.07110679       0.02447839       0.09477714
N        5.86566366       9.78076957      11.35843323       96       0.02587757      -0.07638537       0.26031753
N        7.22656280       3.50207166       0.07187379       97      -0.01015101       0.06048927      -0.19491482
N        7.87027010       0.44046915       0.61047116       98       0.07723902       0.02244350      -0.03453422
N        5.22017915      12.83928690      10.81970253       99       0.02119510       0.08153457       0.20133229
N        9.78112159      12.76215132      10.06451547      100      -0.02355559       0.07314819      -0.04672945
N        3.31282156       0.51800918       1.36770845      101      -0.03654878      -0.10671985      -0.01797551
N        5.52306508       5.71263677       2.25800450      102      -0.14876844      -0.03616157      -0.23337471
N        7.56914129       7.56772394       9.17322880      103       0.14859147       0.04549801       0.19986197
N        7.54788630       5.18097103       3.56485944      104       0.13216928       0.11041734       0.07811391
N        5.54492761       8.10113869       7.86561693      105      -0.07151880      -0.12967044      -0.02939500
O        5.77587434      11.33181848       7.83079182      106       0.03382894       0.16691709       0.09187835
O        7.31439818       1.94918004       3.60005622      107       0.01256157      -0.08748096      -0.12358375
O        4.00332818      10.34732523       9.14373951      108      -0.05615121       0.00606704       0.24177632
O        9.08800589       2.93525122       2.28775602      109       0.06103450      -0.01582344      -0.27719396
110
Lattice="10.04094172 0.0 0.0 2.1764898362754774 9.79145063015987 0.0 0.8758460816375917 3.489667612176621 11.4315933306588" Properties=species:S:1:pos:R:3:spacegroup_kinds:I:1:forces:R:3 spacegroup="P 1" unit_cell=conventional occupancy="_JSON {\"0\": {\"Cu\": 1}, \"1\": {\"Cu\": 1}, \"2\": {\"Cu\": 1}, \"3\": {\"Cu\": 1}, \"4\": {\"H\": 1}, \"5\": {\"H\": 1}, \"6\": {\"H\": 1}, \"7\": {\"H\": 1}, \"8\": {\"H\": 1}, \"9\": {\"H\": 1}, \"10\": {\"H\": 1}, \"11\": {\"H\": 1}, \"12\": {\"H\": 1}, \"13\": {\"H\": 1}, \"14\": {\"H\": 1}, \"15\": {\"H\": 1}, \"16\": {\"H\": 1}, \"17\": {\"H\": 1}, \"18\": {\"H\": 1}, \"19\": {\"H\": 1}, \"20\": {\"H\": 1}, \"21\": {\"H\": 1}, \"22\": {\"H\": 1}, \"23\": {\"H\": 1}, \"24\": {\"H\": 1}, \"25\": {\"H\": 1}, \"26\": {\"H\": 1}, \"27\": {\"H\": 1}, \"28\": {\"H\": 1}, \"29\": {\"H\": 1}, \"30\": {\"H\": 1}, \"31\": {\"H\": 1}, \"32\": {\"H\": 1}, \"33\": {\"H\": 1}, \"34\": {\"H\": 1}, \"35\": {\"H\": 1}, \"36\": {\"H\": 1}, \"37\": {\"H\": 1}, \"38\": {\"H\": 1}, \"39\": {\"H\": 1}, \"40\": {\"H\": 1}, \"41\": {\"H\": 1}, \"42\": {\"H\": 1}, \"43\": {\"H\": 1}, \"44\": {\"C\": 1}, \"45\": {\"C\": 1}, \"46\": {\"C\": 1}, \"47\": {\"C\": 1}, \"48\": {\"C\": 1}, \"49\": {\"C\": 1}, \"50\": {\"C\": 1}, \"51\": {\"C\": 1}, \"52\": {\"C\": 1}, \"53\": {\"C\": 1}, \"54\": {\"C\": 1}, \"55\": {\"C\": 1}, \"56\": {\"C\": 1}, \"57\": {\"C\": 1}, \"58\": {\"C\": 1}, \"59\": {\"C\": 1}, \"60\": {\"C\": 1}, \"61\": {\"C\": 1}, \"62\": {\"C\": 1}, \"63\": {\"C\": 1}, \"64\": {\"C\": 1}, \"65\": {\"C\": 1}, \"66\": {\"C\": 1}, \"67\": {\"C\": 1}, \"68\": {\"C\": 1}, \"69\": {\"C\": 1}, \"70\": {\"C\": 1}, \"71\": {\"C\": 1}, \"72\": {\"C\": 1}, \"73\": {\"C\": 1}, \"74\": {\"C\": 1}, \"75\": {\"C\": 1}, \"76\": {\"C\": 1}, \"77\": {\"C\": 1}, \"78\": {\"C\": 1}, \"79\": {\"C\": 1}, \"80\": {\"C\": 1}, \"81\": {\"C\": 1}, \"82\": {\"C\": 1}, \"83\": {\"C\": 1}, \"84\": {\"C\": 1}, \"85\": {\"C\": 1}, \"86\": {\"C\": 1}, \"87\": {\"C\": 1}, \"88\": {\"C\": 1}, \"89\": {\"C\": 1}, \"90\": {\"N\": 1}, \"91\": {\"N\": 1}, \"92\": {\"N\": 1}, \"93\": {\"N\": 1}, \"94\": {\"N\": 1}, \"95\": {\"N\": 1}, \"96\": {\"N\": 1}, \"97\": {\"N\": 1}, \"98\": {\"N\": 1}, \"99\": {\"N\": 1}, \"100\": {\"N\": 1}, \"101\": {\"N\": 1}, \"102\": {\"N\": 1}, \"103\": {\"N\": 1}, \"104\": {\"N\": 1}, \"105\": {\"N\": 1}, \"106\": {\"O\": 1}, \"107\": {\"O\": 1}, \"108\": {\"O\": 1}, \"109\": {\"O\": 1}}" energy=-734.0729370117188 free_energy=-734.0729370117188 stress="-0.0034971507266163826 0.0005262346821837127 0.0010902566136792302 0.0005262346821837127 -0.0051551442593336105 -0.0004786420613527298 0.0010902566136792302 -0.0004786420613527298 -0.004693850874900818" pbc="T T T"
Cu       4.42451021      10.02613451       7.27279666        0       0.23823595       0.10516962       0.20030862
Cu       8.66799840       3.25750229       4.15769771        1      -0.25056994      -0.10289428      -0.20432152
Cu       5.83387112      11.01392240       9.84618859        2      -0.30112788      -0.03408203      -0.52769941
Cu       7.25932884       2.27042164       1.58490035        3       0.27495307       0.03348333       0.50822079
H        4.27901346       3.85074766       8.83746575        4      -0.02583723       0.02231890      -0.06723917
H        8.81227731       9.43221810       2.59101319        5       0.02349576      -0.03103741       0.10923150
H        4.99440230       5.83417792       7.49821257        6       0.01079753       0.05909042       0.00414256
H        8.09537855       7.44799397       3.92939655        7      -0.00371096      -0.04394019      -0.00263821
H        5.14835945       5.68437163       5.02716228        8      -0.04978141       0.05681394       0.07677301
H        7.94159260       7.59889421       6.40338885        9       0.04475058      -0.07403325      -0.08931778
H        4.50641031       3.56485966       3.87403543       10      -0.04297437      -0.00324242       0.04600459
H        8.58514585       9.71680663       7.55423595       11       0.04073536      -0.00186685      -0.04424159
H        3.82181574       1.34294689       3.91145996       12      -0.05303020       0.04658099       0.01881558
H        9.27010647      11.93688752       7.51909848       13       0.06898736      -0.04136582      -0.06248918
H        5.19610061       8.12190185       5.00483605       14       0.00143035      -0.03174476      -0.04879822
H        7.89384625       5.16182067       6.42341110       15       0.02318409      -0.03952119       0.09784805
H        5.20146977       9.20111900       3.58523592       16      -0.08594178      -0.00695925       0.05537204
H        7.89232635       4.08091385       7.84680012       17       0.05197335      -0.00220518      -0.04768162
H       11.56538325      10.00241561       3.74254864       18      -0.04271297       0.00861645      -0.04854727
H        1.52479650       3.28119456       7.68403538       19       0.00417911      -0.01821679       0.04305253
H        3.07859776      10.61282540       3.15760519       20       0.01054398      -0.02821003       0.04041775
H       10.00958776       2.67011598       8.27157030       21       0.01662710       0.03899343      -0.05916066
H        2.59134027      10.89865572       4.84055342       22      -0.02834469      -0.02021994      -0.10102480
H       10.49549398       2.38295448       6.58952115       23       0.03039617       0.01997370       0.08602392
H        3.52624895       6.87648982       3.50269583       24      -0.08239450       0.09262858      -0.00405185
H        9.56391432       6.40516061       7.92750634       25       0.05429087      -0.04835567      -0.01406223
H        3.35996771       8.20428541       2.34267067       26       0.02846622      -0.01262000      -0.01934521
H        9.72959487       5.07791138       9.08566145       27      -0.01652149       0.02271602       0.02139847
H        1.92580311       7.60621196       3.19876368       28      -0.02907071      -0.06368912      -0.01920941
H       11.16441897       5.67720592       8.22805175       29       0.01065201       0.05454043       0.02160014
H       11.59255545       8.06801582       5.52765858       30       0.04020268      -0.00143644       0.06066167
H        1.50077899       5.21335960       5.90394089       31      -0.09759144      -0.00920878      -0.05879617
H        3.10616756       7.29264192       5.89533778       32      -0.09653434      -0.02086605      -0.00891961
H        9.98392792       5.99006212       5.53507161       33       0.13281253      -0.02954452       0.02329819
H       10.97448576       8.37313016       7.50200299       34      -0.06154959      -0.04666011      -0.00611522
H        2.11654560       4.90984916       3.92719653       35       0.04936668       0.01437274      -0.02482385
H        2.62248893       7.66526294       0.12149759       36      -0.07011031      -0.03038259      -0.06296188
H       10.46624986       5.61699182      11.30804869       37       0.06380486       0.01708436       0.04960393
H       10.58847827       7.17414070       1.39033761       38      -0.05196849       0.00861546       0.09388050
H        2.50182380       6.10926468      10.03711691       39       0.04356407      -0.00712771      -0.06593765
H        8.73257436       5.87311035       0.33320589       40       0.08818883       0.02445086       0.01929350
H        4.35929395       7.40837821      11.09828836       41      -0.05514659      -0.02094768      -0.05898416
H        9.82987384       8.65558812       9.39403698       42       0.04057837       0.00296390      -0.04232337
H        3.25948967       4.62389415       2.03443749       43      -0.04734944       0.00174166       0.04396036
C        3.96100757       2.59601764       7.12207130       44       0.01076201      -0.20568493       0.08632854
C        9.12894336      10.68787680       4.30668581       45      -0.03224126       0.08334908      -0.04034206
C        4.33325292       3.80354708       7.74996122       46      -0.03018780       0.16167477      -0.11607358
C        8.75704286       9.47666439       3.68003029       47       0.08699010       0.02909192      -0.01174334
C        4.73184534       4.90285299       6.99953886       48      -0.02985263      -0.03956719       0.05367648
C        8.35882839       8.38012382       4.42731539       49      -0.02787897      -0.09425817       0.06002438
C        4.79705989       4.82932485       5.60062973       50      -0.06770205       0.00722134       0.03993977
C        8.29225232       8.45221678       5.82760614       51       0.08919854       0.02830103      -0.05209695
C        4.43696429       3.65351187       4.95947434       52      -0.05384410       0.04666724       0.03102528
C        8.65339212       9.62769795       6.46879751       53       0.04529603      -0.05368173      -0.03484461
C        3.97846103       2.53515811       5.69100423       54      -0.04046560       0.09651674       0.05768432
C        9.11082722      10.74670603       5.73772694       55       0.06181623      -0.06448954      -0.06372977
C        5.74662029      11.16115465       4.97240741       56       0.13074869      -0.00275362       0.05631360
C        7.34463120       2.12060855       6.45651672       57      -0.17675777      -0.04068276      -0.00981662
C        4.75635926       9.03615209       4.57936824       58      -0.03215356       0.11819494       0.05365491
C        8.33329245       4.24510867       6.85160244       59      -0.00370030      -0.03647065      -0.13602407
C        3.23399144       8.84322615       4.42202686       60       0.18759522      -0.11612287       0.08909100
C        9.85388746       4.43815352       7.00820223       61      -0.12247191       0.16398716      -0.11961293
C        2.56573647      10.17239523       4.02080378       62       0.01493088      -0.09014920       0.04565182
C       10.52284026       3.11083697       7.40728862       63       0.00743491       0.04820265       0.02894098
C        2.99657014       7.81996136       3.30009941       64      -0.07672748      -0.00984929       0.04074342
C       10.09300664       5.46314639       8.12829911       65       0.10239665      -0.05113589      -0.00193079
C        2.62284455       8.26715668       5.70346936       66       0.04201680       0.16425231       0.12696943
C       10.46852910       5.01400486       5.72860489       67      -0.03495052      -0.09836695      -0.19225229
C       11.85457498       8.94901538       7.80279645       68      -0.21461880      -0.10199277       0.13075340
C        1.23846953       4.33025894       3.62437087       69       0.07459444       0.13552780       0.03292155
C       11.81166264       9.45295663       9.13789768       70       0.07427309       0.10226409       0.05079728
C        1.27742032       3.82743157       2.28817740       71      -0.01614457      -0.03460716       0.03900456
C        2.86151350      10.14258009       9.77121508       72       0.05147699      -0.00403849      -0.01367065
C       10.22843731       3.13977358       1.65606854       73      -0.04129371      -0.02208591       0.02497238
C        2.68465797      10.58787731      11.09859643       74       0.02221492       0.00998890       0.04819191
C       10.40499210       2.69218408       0.33063648       75       0.02385780       0.02533722      -0.09653197
C       10.68571605       6.82241626       0.36666859       76       0.01252574      -0.04084903       0.04130851
C        2.40462169       6.45954260      11.06224720       77      -0.02951099       0.00435896      -0.08778082
C       10.51270118       9.60188178      11.20182470       78      -0.01563659      -0.00017994       0.04881901
C        2.57879968       3.67886292       0.22564308       79      -0.05475602       0.01545644       0.02710280
C       10.63998287       9.19427534       9.88554906       80       0.10271621      -0.03220966       0.04076424
C        2.44812002       4.08800923       1.54182756       81      -0.03891672       0.01338603      -0.07695583
C        8.71317624      12.02888774      10.02962946       82       0.02229245      -0.10789903       0.20633878
C        4.37437411       1.25509927       1.39641585       83       0.19350329       0.24128211      -0.13927856
C        8.17165674       3.43568585      11.13118404       84      -0.00315961       0.08775187      -0.04109472
C        4.91683821       9.84869130       0.29759140       85      -0.00573486      -0.11945350       0.03953867
C        5.33655465       6.02827803       1.02636954       86       0.04009185       0.09262772       0.08347394
C        7.75396733       7.25629493      10.40239927       87      -0.03629267      -0.12621978      -0.01141726
C        6.63516196       5.42773838       2.86222252       88      -0.06857108       0.13058227      -0.20633382
C        6.45403142       7.85443839       8.56632957       89       0.29878742      -0.19370861       0.36052769
N        5.08610865      10.13884422       5.44818303       90       0.06850795      -0.20701361      -0.28480816
N        8.00205924       3.14388707       5.98041294       91      -0.04724878       0.23291311       0.31143558
N        2.75839924       9.06742210       6.90701709       92      -0.13938591      -0.18630882      -0.44242251
N       10.33283989       4.21453395       4.52467621       93       0.26931715       0.17406164       0.29275244
N        7.77103479      11.35107168       9.83315935       94      -0.06540010      -0.02756264      -0.10044511
N        5.31772932       1.93421651       1.59694060       95      -0.09941095      -0.08823452       0.06002201
N        5.86512242       9.78064805      11.35857117       96      -0.05019097       0.00671964      -0.00640877
N        7.22634325       3.50386333       0.06900138       97       0.08176434      -0.03950015       0.13749263
N        7.87018130       0.44215692       0.61092110       98       0.08154246       0.02854154      -0.03234111
N        5.21797568      12.83875821      10.82033058       99      -0.09746489      -0.02208565       0.00818188
N        9.77994771      12.76326188      10.06290589      100      -0.01824720       0.07779811       0.03403834
N        3.31191637       0.51524482       1.36602011      101       0.01890694      -0.05626401      -0.02416904
N        5.52023831       5.71159219       2.25546830      102      -0.08692241      -0.04536700      -0.18117465
N        7.57150242       7.56745984       9.17612738      103      -0.08807942       0.13303731      -0.08268256
N        7.54602059       5.18245686       3.56375254      104       0.17143865       0.10134020       0.10308568