106
Lattice="10.37342383 0.0 0.0 -4.212698769431617 9.371260057022301 0.0 -4.25621623617512 -4.313429691023531 11.775003163121273" Properties=species:S:1:pos:R:3:spacegroup_kinds:I:1:forces:R:3 spacegroup="P 1" unit_cell=conventional occupancy="_JSON {\"0\": {\"Fe\": 1}, \"1\": {\"Fe\": 1}, \"2\": {\"H\": 1}, \"3\": {\"H\": 1}, \"4\": {\"H\": 1}, \"5\": {\"H\": 1}, \"6\": {\"H\": 1}, \"7\": {\"H\": 1}, \"8\": {\"H\": 1}, \"9\": {\"H\": 1}, \"10\": {\"H\": 1}, \"11\": {\"H\": 1}, \"12\": {\"H\": 1}, \"13\": {\"H\": 1}, \"14\": {\"H\": 1}, \"15\": {\"H\": 1}, \"16\": {\"H\": 1}, \"17\": {\"H\": 1}, \"18\": {\"H\": 1}, \"19\": {\"H\": 1}, \"20\": {\"H\": 1}, \"21\": {\"H\": 1}, \"22\": {\"H\": 1}, \"23\": {\"H\": 1}, \"24\": {\"H\": 1}, \"25\": {\"H\": 1}, \"26\": {\"H\": 1}, \"27\": {\"H\": 1}, \"28\": {\"H\": 1}, \"29\": {\"H\": 1}, \"30\": {\"H\": 1}, \"31\": {\"H\": 1}, \"32\": {\"H\": 1}, \"33\": {\"H\": 1}, \"34\": {\"H\": 1}, \"35\": {\"H\": 1}, \"36\": {\"H\": 1}, \"37\": {\"H\": 1}, \"38\": {\"H\": 1}, \"39\": {\"H\": 1}, \"40\": {\"H\": 1}, \"41\": {\"H\": 1}, \"42\": {\"C\": 1}, \"43\": {\"C\": 1}, \"44\": {\"C\": 1}, \"45\": {\"C\": 1}, \"46\": {\"C\": 1}, \"47\": {\"C\": 1}, \"48\": {\"C\": 1}, \"49\": {\"C\": 1}, \"50\": {\"C\": 1}, \"51\": {\"C\": 1}, \"52\": {\"C\": 1}, \"53\": {\"C\": 1}, \"54\": {\"C\": 1}, \"55\": {\"C\": 1}, \"56\": {\"C\": 1}, \"57\": {\"C\": 1}, \"58\": {\"C\": 1}, \"59\": {\"C\": 1}, \"60\": {\"C\": 1}, \"61\": {\"C\": 1}, \"62\": {\"C\": 1}, \"63\": {\"C\": 1}, \"64\": {\"C\": 1}, \"65\": {\"C\": 1}, \"66\": {\"C\": 1}, \"67\": {\"C\": 1}, \"68\": {\"C\": 1}, \"69\": {\"C\": 1}, \"70\": {\"C\": 1}, \"71\": {\"C\": 1}, \"72\": {\"C\": 1}, \"73\": {\"C\": 1}, \"74\": {\"C\": 1}, \"75\": {\"C\": 1}, \"76\": {\"C\": 1}, \"77\": {\"C\": 1}, \"78\": {\"C\": 1}, \"79\": {\"C\": 1}, \"80\": {\"C\": 1}, \"81\": {\"C\": 1}, \"82\": {\"C\": 1}, \"83\": {\"C\": 1}, \"84\": {\"C\": 1}, \"85\": {\"C\": 1}, \"86\": {\"S\": 1}, \"87\": {\"S\": 1}, \"88\": {\"S\": 1}, \"89\": {\"S\": 1}, \"90\": {\"N\": 1}, \"91\": {\"N\": 1}, \"92\": {\"N\": 1}, \"93\": {\"N\": 1}, \"94\": {\"N\": 1}, \"95\": {\"N\": 1}, \"96\": {\"N\": 1}, \"97\": {\"N\": 1}, \"98\": {\"N\": 1}, \"99\": {\"N\": 1}, \"100\": {\"N\": 1}, \"101\": {\"N\": 1}, \"102\": {\"O\": 1}, \"103\": {\"O\": 1}, \"104\": {\"O\": 1}, \"105\": {\"O\": 1}}" energy=-707.3990478515625 free_energy=-707.3990478515625 stress="-0.012941734865307808 0.0021924288012087345 -0.0016488515539094806 0.0021924288012087345 -0.011263095773756504 0.0006264917901717126 -0.0016488515539094806 0.0006264917901717126 -0.008435796946287155" pbc="T T T"
Fe       3.97964521       2.64156959       2.94872190        0       0.29336357       0.43634504      -0.06873485
Fe      -2.07484704       2.41636033       8.82774993        1      -0.31022561      -0.43768221       0.05396097
H        4.47469047      -0.21323315       2.33595096        2       0.00832801      -0.06705548      -0.02389707
H        1.15294396       1.96967798       3.50554174        3      -0.06906335       0.01776050       0.02379501
H       -2.57424532       5.27165306       9.43599540        4       0.05991250       0.07512838       0.01412912
H        0.75053281       3.08883432       8.26737555        5       0.06721044       0.02440338      -0.01839063
H       -1.00139251       7.05948365       2.30768658        6      -0.03328694       0.03766155       0.01913561
H       -0.26758936      -0.02727323       3.55331419        7       0.02375802       0.00342440      -0.01988536
H        2.90318809      -2.00022133       9.46479202        8       0.02684119      -0.03069173      -0.01452897
H        2.17050246       5.08681783       8.21948949        9      -0.04722947       0.00552979       0.02248601
H       -2.02723754       5.34147194       2.96230729       10       0.09027088       0.01094431       0.02991424
H        4.72295119       7.72229383       2.92254399       11       0.00657912       0.04821251      -0.03141447
H        3.92825834      -0.28227935       8.81028650       12      -0.01647985      -0.01780322      -0.02848000
H       -2.81996362      -2.66283582       8.84959194       13       0.00359693      -0.06424111       0.03430792
H        6.91614404       3.34868016       3.03675501       14       0.02109829       0.01538327      -0.00287038
H        3.46183540       5.62035372       2.88487240       15       0.02959332       0.03766615       0.01993567
H       -5.01308494       1.71098915       8.73521178       16      -0.01353173      -0.02144681       0.00961949
H       -1.55821404      -0.56176128       8.88754201       17      -0.02463764      -0.02964928      -0.02802090
H        3.91565348       3.43382782       5.45918266       18      -0.24792033      -0.15940486      -0.04181078
H        4.77057205       2.97730753       0.44619408       19      -0.02933817      -0.13698339      -0.07138769
H       -2.01145178       1.62770056       6.31454866       20       0.18319511       0.11997253      -0.00526632
H       -2.86859750       2.08065810      11.32780106       21       0.04472824       0.25082573      -0.00017499
H        2.48848000       3.78066509       4.84980113       22       0.19376752      -0.27424312       0.18609311
H        5.70477450       1.84714498       1.04855559       23      -0.33798033       0.05037826      -0.19269386
H       -0.58578109       1.27761560       6.92472819       24      -0.20353301       0.28106916      -0.19180028
H       -3.80046252       3.21163753      10.72523400       25       0.31450689      -0.02977514       0.18101002
H        2.25744822       8.74198672       0.71156045       26      -0.04218932      -0.01783723       0.02861600
H       -0.10019416       3.40439741       5.19475803       27       0.00924291      -0.07542469      -0.02300405
H       -0.35477329      -3.68283637      11.06024487       28       0.02353727       0.00557689      -0.03041135
H        2.00270491       1.65536456       6.57799069       29      -0.01258383       0.05453332       0.02138888
H        4.39883819       7.75413365       0.05905283       30       0.00837488       0.02295679       0.05002360
H       -1.89186732       4.94165495       5.83089323       31       0.05580585       0.02874810      -0.05556151
H       -2.49841844      -2.69625433      11.71339690       32       0.00664123      -0.00579700      -0.05259699
H        3.79530978       0.11728923       5.94275322       33      -0.05580500      -0.02899083       0.05183491
H       -0.02511266       2.34799767       0.43763986       34      -0.01938818      -0.09682971      -0.03243207
H        5.20022240      -1.19747998       5.44759322       35      -0.08769155      -0.06147537       0.02048150
H        1.92823997       2.71078769      11.33546653       36      -0.00217283       0.07500377       0.03198067
H       -3.29799385       6.25593635       6.32671163       37       0.07698423       0.05126399      -0.02443193
H        8.12944152       3.16212682       1.03529345       38      -0.00785054       0.00928034       0.03553284
H        2.65606396       6.49400035       4.86371528       39      -0.02604942      -0.00580130      -0.01896348
H       -6.22594233       1.89682810      10.73879445       40      -0.00260990       0.02204750      -0.03273619
H       -0.75335139      -1.43556601       6.91041249       41       0.01391503       0.01115143       0.02525001
C        3.41899087      -0.21544888       2.59861412       42      -0.12609145       0.21325141       0.05257139
C        1.57311169       1.00001425       3.25100531       43       0.13062426      -0.12620145      -0.03671227
C       -1.51583357       5.27346404       9.17502365       44      -0.00530082      -0.18665703      -0.05458201
C        0.33294044       4.06097849       8.52117600       45      -0.43043625      -0.02799115       0.06158014
C       -1.51971395       7.97617701       2.59516202       46       0.04936288      -0.00109094      -0.00607699
C        0.77755887      -0.13698201       3.26329589       47       0.06054255       0.09892850       0.02429405
C        3.42143448      -2.91655597       9.17756676       48       0.00683937      -0.03145964       0.00855581
C        1.12402796       5.19650243       8.50786741       49       0.04978102      -0.06414824      -0.01127606
C       -2.88464325       7.98322018       2.93489776       50      -0.00543028      -0.00284272      -0.02169202
C        4.78691168      -2.92469701       8.83917160       51      -0.02566998       0.09274908       0.00370569
C       -3.69209773       6.75380840       2.94136746       52       0.02817281      -0.03797450       0.01928917
C        5.59497560      -1.69410834       8.83045558       53      -0.00625445      -0.01647858       0.00553377
C       -3.10545351       5.47269570       2.95830167       54      -0.09297584       0.02498848       0.02270479
C        5.27383127       6.78468452       2.93547152       55      -0.00957753      -0.01847479      -0.03122810
C        5.00872381      -0.41353165       8.81454818       56       0.01988682       0.01768786      -0.02990153
C       -3.37036998      -1.72566060       8.83746917       57      -0.01066524       0.07297063       0.00638388
C        6.46820221       4.33803374       2.98699365       58      -0.01378128       0.07418951       0.03783714
C        4.54834127       5.60248243       2.93008374       59       0.08419406      -0.11866213      -0.03744898
C       -4.56499073       0.72158277       8.78611810       60       0.02049261      -0.09662473      -0.04444774
C       -2.64447701      -0.54210001       8.83997920       61      -0.09787792       0.01107797       0.07318772
C        6.29746571       1.05626188       4.21205351       62      -0.03367925      -0.00558221      -0.04752976
C        1.64060449       4.17355955       1.65099648       63      -0.20353743       0.11300346      -0.05779034
C       -4.39277291       4.00070366       7.56309091       64      -0.02749619       0.04976073       0.01450741
C        0.26697259       0.88457032      10.12197554       65      -0.09613329       0.07021780      -0.08906667
C        7.36169218      -0.00541798       0.66802768       66       0.00437161      -0.03992155       0.03127640
C        0.09683654       4.47385230       5.23356252       67      -0.04732382       0.06738499      -0.02434836
C       -5.45960124       5.06400084      11.10267907       68       0.05199409       0.05979732      -0.01932478
C        1.80556703       0.58518843       6.53873017       69       0.09108676      -0.01483494       0.01746384
C        4.36677368       8.81313790       0.29839561       70       0.01869040       0.03566542       0.05596389
C       -0.91386434       5.35352461       5.59305197       71      -0.02482719      -0.05272438      -0.03266184
C       -2.46402350      -3.75442916      11.47285573       72      -0.06274252      -0.05717932      -0.05518650
C        2.81661683      -0.29333050       6.17911605       73      -0.00943782      -0.08638378       0.02974408
C        9.71477735       0.26531234       0.20149495       74       0.12310963       0.03197684       0.00719500
C       -0.64011098       6.72847633       5.68600869       75      -0.05382333       0.10681582      -0.00469663
C       -7.81297341       4.79401953      11.57033463       76      -0.10161920      -0.05961814      -0.01259800
C        2.53986048      -1.67096657       6.08640024       77       0.13186154       0.01831757      -0.00310943
C       -0.83796158       1.62978968       0.49409223       78      -0.06071749      -0.00039187      -0.02573960
C        0.67309380       7.13529415       5.39502490       79       0.12862365      -0.05941118       0.01833447
C        2.73995858       3.42875437      11.27824457       80       0.09177408       0.06545816       0.02407590
C        1.22737614      -2.07656564       6.37740869       81      -0.10054299       0.02859050      -0.01216977
C        8.28132579       2.10146754       0.83863030       82       0.11719007      -0.03697109       0.01800481
C        1.62744934       6.18977289       5.05930002       83      -0.08512923       0.13191164      -0.02795336
C       -6.37865746       2.95886204      10.93348199       84      -0.11061262      -0.05225196      -0.01544473
C        0.27493939      -1.13179321       6.71467976       85       0.07181472      -0.02718103       0.02662116
S        7.53338205       0.17849256       4.81365623       86       0.23031697      -0.04445094       0.01655509
S        0.37460704       4.99028156       1.01840646       87      -0.04773615       0.18913579      -0.01194363
S       -5.62883524       4.87904015       6.96026208       88      -0.21923459       0.03517952      -0.01066337
S        1.53017198       0.06727599      10.75459691       89       0.07455892      -0.19842400       0.01731971
N        2.88322690       0.98293804       2.92540633       90      -0.93033928      -1.55308521      -0.04775887
N       -0.98450075       4.07559615       8.84586967       91       1.22451305       1.56790662       0.01681730
N        5.11999823       4.37829651       2.96412004       92       0.37437207       0.73721689       0.00818561
N       -3.21613108       0.68002355       8.80842779       93      -0.41389632      -0.66401953      -0.01560835
N        5.40192103       1.68277328       3.75595209       94       0.90593398      -0.55088943       0.72316986
N        2.54672167       3.58189537       2.12576750       95      -0.67431211       0.50570089      -0.62339401
N       -3.49758702       3.37506849       8.01904232       96      -0.86291409       0.51447225      -0.70024991
N       -0.64491301       1.47590077       9.64800815       97       0.95754158      -0.68025982       0.76694155
N        7.20530099       1.30144302       0.92903043       98       0.05049002      -0.00845690      -0.00041801
N        1.35045930       4.87869085       4.97449979       99      -0.06569278      -0.01443106       0.02478307
N       -5.30129263       3.75663539      10.84361660      100      -0.09333777       0.04972710      -0.00064109
N        0.55319465       0.18094502       6.79789097      101      -0.01079440      -0.07062790      -0.00857854
O        3.20385318       3.03748797       4.89931743      102       0.06174115       0.40192065       0.27528289
O        4.72250776       2.15401470       0.98363301      103       0.32997644       0.10581212      -0.09887166
O       -1.30175575       2.02074606       6.87552196      104       0.01871930      -0.37093240      -0.22798042
O       -2.81833689       2.90768812      10.79018211      105      -0.32032037      -0.24931756       0.18920621
106
Lattice="10.37342383 0.0 0.0 -4.212698769431617 9.371260057022301 0.0 -4.25621623617512 -4.313429691023531 11.775003163121273" Properties=species:S:1:pos:R:3:spacegroup_kinds:I:1:forces:R:3 spacegroup="P 1" unit_cell=conventional occupancy="_JSON {\"0\": {\"Fe\": 1}, \"1\": {\"Fe\": 1}, \"2\": {\"H\": 1}, \"3\": {\"H\": 1}, \"4\": {\"H\": 1}, \"5\": {\"H\": 1}, \"6\": {\"H\": 1}, \"7\": {\"H\": 1}, \"8\": {\"H\": 1}, \"9\": {\"H\": 1}, \"10\": {\"H\": 1}, \"11\": {\"H\": 1}, \"12\": {\"H\": 1}, \"13\": {\"H\": 1}, \"14\": {\"H\": 1}, \"15\": {\"H\": 1}, \"16\": {\"H\": 1}, \"17\": {\"H\": 1}, \"18\": {\"H\": 1}, \"19\": {\"H\": 1}, \"20\": {\"H\": 1}, \"21\": {\"H\": 1}, \"22\": {\"H\": 1}, \"23\": {\"H\": 1}, \"24\": {\"H\": 1}, \"25\": {\"H\": 1}, \"26\": {\"H\": 1}, \"27\": {\"H\": 1}, \"28\": {\"H\": 1}, \"29\": {\"H\": 1}, \"30\": {\"H\": 1}, \"31\": {\"H\": 1}, \"32\": {\"H\": 1}, \"33\": {\"H\": 1}, \"34\": {\"H\": 1}, \"35\": {\"H\": 1}, \"36\": {\"H\": 1}, \"37\": {\"H\": 1}, \"38\": {\"H\": 1}, \"39\": {\"H\": 1}, \"40\": {\"H\": 1}, \"41\": {\"H\": 1}, \"42\": {\"C\": 1}, \"43\": {\"C\": 1}, \"44\": {\"C\": 1}, \"45\": {\"C\": 1}, \"46\": {\"C\": 1}, \"47\": {\"C\": 1}, \"48\": {\"C\": 1}, \"49\": {\"C\": 1}, \"50\": {\"C\": 1}, \"51\": {\"C\": 1}, \"52\": {\"C\": 1}, \"53\": {\"C\": 1}, \"54\": {\"C\": 1}, \"55\": {\"C\": 1}, \"56\": {\"C\": 1}, \"57\": {\"C\": 1}, \"58\": {\"C\": 1}, \"59\": {\"C\": 1}, \"60\": {\"C\": 1}, \"61\": {\"C\": 1}, \"62\": {\"C\": 1}, \"63\": {\"C\": 1}, \"64\": {\"C\": 1}, \"65\": {\"C\": 1}, \"66\": {\"C\": 1}, \"67\": {\"C\": 1}, \"68\": {\"C\": 1}, \"69\": {\"C\": 1}, \"70\": {\"C\": 1}, \"71\": {\"C\": 1}, \"72\": {\"C\": 1}, \"73\": {\"C\": 1}, \"74\": {\"C\": 1}, \"75\": {\"C\": 1}, \"76\": {\"C\": 1}, \"77\": {\"C\": 1}, \"78\": {\"C\": 1}, \"79\": {\"C\": 1}, \"80\": {\"C\": 1}, \"81\": {\"C\": 1}, \"82\": {\"C\": 1}, \"83\": {\"C\": 1}, \"84\": {\"C\": 1}, \"85\": {\"C\": 1}, \"86\": {\"S\": 1}, \"87\": {\"S\": 1}, \"88\": {\"S\": 1}, \"89\": {\"S\": 1}, \"90\": {\"N\": 1}, \"91\": {\"N\": 1}, \"92\": {\"N\": 1}, \"93\": {\"N\": 1}, \"94\": {\"N\": 1}, \"95\": {\"N\": 1}, \"96\": {\"N\": 1}, \"97\": {\"N\": 1}, \"98\": {\"N\": 1}, \"99\": {\"N\": 1}, \"100\": {\"N\": 1}, \"101\": {\"N\": 1}, \"102\": {\"O\": 1}, \"103\": {\"O\": 1}, \"104\": {\"O\": 1}, \"105\": {\"O\": 1}}" energy=-707.4580078125 free_energy=-707.4580078125 stress="-0.014881137758493423 0.0023773638531565666 -0.0015063417376950383 0.0023773638531565666 -0.01251086127012968 0.0005658402806147933 -0.0015063417376950383 0.0005658402806147933 -0.008607804775238037" pbc="T T T"
Fe       3.98214021       2.64455860       2.95037106        0       0.24951264       0.41018033      -0.09192956
Fe      -2.07763555       2.41346652       8.82759011        1      -0.29150617      -0.39559156       0.04368660
H        4.47246164      -0.21517115       2.33314084        2      -0.00589412      -0.03885110      -0.01627099
H        1.15024174       1.96863532       3.50473060        3      -0.01669383      -0.04886150      -0.00020449
H       -2.57289684       5.27451568       9.43478828        4       0.06877042       0.05649918       0.00907568
H        0.75326067       3.09170637       8.26781698        5       0.01839697       0.06521061      -0.00425513
H       -1.00379176       7.06124110       2.30662409        6      -0.00490929      -0.00454411       0.00041513
H       -0.26831110      -0.02752464       3.55126347        7       0.04273695       0.02280471      -0.01906181
H        2.90301880      -2.00033564       9.46290472        8      -0.00229155       0.00183749       0.00205528
H        2.16819423       5.08858836       8.21906110        9      -0.01730382      -0.01985246       0.01181070
H       -2.02732839       5.34215587       2.96225475       10       0.05488026       0.01444601       0.03013759
H        4.72262432       7.72378751       2.91973961       11      -0.00255767       0.04418853      -0.03152246
H        3.92630291      -0.28250734       8.80782707       12       0.00299688      -0.01274095      -0.02776005
H       -2.82045163      -2.66318905       8.84880153       13      -0.01436637      -0.02303985       0.03418975
H        6.91548926       3.35083959       3.03563166       14       0.01117252       0.03739282      -0.00275334
H        3.46291319       5.62287026       2.88323715       15       0.04482011       0.01165995       0.01810917
H       -5.01462960       1.71110364       8.73316315       16       0.02237298      -0.08097118       0.00841450
H       -1.56081700      -0.56200386       8.88474652       17      -0.00205441      -0.01573189      -0.01690285
H        3.91297619       3.43194729       5.45956234       18      -0.08278601      -0.06752241       0.08959576
H        4.76905583       2.97525733       0.44444152       19      -0.00944780      -0.00879506      -0.15723784
H       -2.00952476       1.62990561       6.31401929       20       0.01414306       0.02055699      -0.14457399
H       -2.87030434       2.08352083      11.32755316       21       0.03174107       0.04600744       0.13318151
H        2.49086655       3.77926512       4.85206891       22       0.11611945      -0.19039130       0.17629969
H        5.70180745       1.84769643       1.04566364       23      -0.19741893       0.02675743      -0.18502101
H       -0.58873347       1.28041561       6.92208262       24      -0.11244507       0.17215373      -0.18596792
H       -3.79876391       3.21105267      10.72630717       25       0.21422461      -0.00754834       0.17528965
H        2.25573482       8.74214499       0.71059532       26       0.01688961       0.01134661       0.02606092
H       -0.10119103       3.40381866       5.19339520       27       0.01073094      -0.03668860      -0.01759571
H       -0.35641797      -3.68213601      11.05839351       28       0.06860024       0.03540844      -0.03500236
H        2.00121888       1.65582230       6.57744960       29       0.00371620       0.08642607       0.02092275
H        4.39768288       7.75529202       0.05908905       30       0.01560068       0.01549694       0.04800267
H       -1.89140975       4.94373195       5.82803971       31       0.00982860      -0.00074522      -0.04335216
H       -2.49994821      -2.69630527      11.71110417       32       0.00143098       0.00774601      -0.04883391
H        3.79276148       0.11641816       5.94356748       33       0.02096198      -0.00108205       0.03111354
H       -0.02674199       2.34625029       0.43553697       34       0.00913978      -0.05338979      -0.03022823
H        5.19776645      -1.19914764       5.44730917       35      -0.04949144       0.02898934       0.02200616
H        1.92608921       2.71145064      11.33475234       36       0.04596756       0.10099733       0.02934853
H       -3.29678423       6.25847601       6.32558483       37       0.04148908      -0.01604617      -0.02521191
H        8.12848930       3.16203330       1.03365447       38       0.00382147      -0.00320448       0.03203262
H        2.65390817       6.49409091       4.86169646       39      -0.00740507       0.00666927      -0.02341194
H       -6.22721548       1.89730792      10.73710858       40      -0.00530088       0.01950139      -0.03344428
H       -0.75358596      -1.43449741       6.90930511       41      -0.00318632       0.00185394       0.03151105
C        3.41635634      -0.21284769       2.59674860       42      -0.04896095       0.00868963       0.01016068
C        1.57414304       0.99781933       3.24870976       43      -0.05481708       0.09306762       0.05203967
C       -1.51409494       5.27366518       9.17350109       44      -0.11879003      -0.11015163      -0.02638946
C        0.33003045       4.06385572       8.52105288       45      -0.24321972      -0.19819662      -0.01417443
C       -1.52127193       7.97672002       2.59283229       46       0.01814211       0.06929263       0.02297521
C        0.77784918      -0.13452459       3.26213982       47      -0.02968240      -0.07137599       0.01791804
C        3.42030900      -2.91583019       9.17664859       48       0.10951446      -0.02020542      -0.02194843
C        1.12235285       5.19534079       8.50667182       49       0.05589320       0.15401174       0.01925316
C       -2.88551449       7.98423682       2.93460191       50       0.00896435      -0.00756636      -0.03781951
C        4.78634548      -2.92257065       8.83696732       51      -0.04936158      -0.01006826       0.00795069
C       -3.69250053       6.75439318       2.94058831       52      -0.01243840      -0.00081691       0.02765699
C        5.59408991      -1.69318678       8.82910885       53       0.01794655      -0.01010733      -0.00073443
C       -3.10657299       5.47369774       2.95821641       54      -0.00653638       0.07125597       0.01475984
C        5.27238404       6.78569044       2.93363268       55       0.06851526      -0.01149456      -0.03637702
C        5.00744448      -0.41246863       8.81267574       56      -0.02982900      -0.06348652      -0.03050226
C       -3.37071651      -1.72440849       8.83677583       57      -0.04675531      -0.01181328       0.01451201
C        6.46690724       4.34087221       2.98614904       58       0.13379568      -0.02546504       0.05165195
C        4.54996434       5.60241542       2.92787914       59      -0.01116282      -0.01699653      -0.02318043
C       -4.56568918       0.71963413       8.78357412       60      -0.07873389       0.05095375      -0.04231827
C       -2.64660912      -0.54080778       8.84054062       61      -0.03787297      -0.09854764       0.04544927
C        6.30015577       1.05496286       4.21116246       62      -0.05794582       0.01132351      -0.05032554
C        1.63834878       4.17652579       1.64926918       63      -0.27447075       0.15547030      -0.09168535
C       -4.39545656       4.00333645       7.56221943       64      -0.08983859       0.09128705      -0.02034178
C        0.26857655       0.88387299      10.12086263       65      -0.00645113       0.00646830      -0.03418571
C        7.36260677      -0.00543174       0.66761004       66      -0.09642729      -0.01643899       0.04538205
C        0.09564616       4.47462463       5.23269132       67      -0.03005499      -0.02254885      -0.04235214
C       -5.46011707       5.06595505      11.10001270       68      -0.03845698      -0.01281601       0.00350789
C        1.80585721       0.58641706       6.53822364       69       0.05617908      -0.10498387       0.01390426
C        4.36686659       8.81418519       0.29839222       70       0.05975239       0.00130948       0.04228615
C       -0.91385506       5.35309570       5.59120953       71      -0.06231611       0.11239320      -0.01136172
C       -2.46517213      -3.75417034      11.47083688       72      -0.10239628      -0.06388245      -0.05890762
C        2.81609952      -0.29362273       6.17846576       73      -0.04290539      -0.10266972       0.04215269
C        9.71583319       0.26556621       0.20081385       74       0.01194683       0.05350405       0.02471041
C       -0.64240848       6.73093245       5.68443925       75       0.07516213      -0.06606580      -0.04207214
C       -7.81562691       4.79364040      11.56840378       76       0.04796988      -0.01416783      -0.01620705
C        2.54110321      -1.67170131       6.08514871       77      -0.04894446       0.11125846       0.04451972
C       -0.83996589       1.63072548       0.49344487       78       0.06976570      -0.10252404      -0.06752201
C        0.67347161       7.13575189       5.39373797       79      -0.03202082      -0.06080407       0.04545433
C        2.74071125       3.42874629      11.27747699       80      -0.10862990       0.04437831       0.04165552
C        1.22478426      -2.07515087       6.37694308       81       0.10013450      -0.00364202      -0.05756376
C        8.28218764       2.10102869       0.83726881       82      -0.00013245       0.03816965       0.05032936
C        1.62528449       6.19241302       5.05735550       83      -0.04938543      -0.04817809      -0.04618637
C       -6.38134889       2.95905738      10.93163636       84       0.01245937      -0.03877169      -0.02247874
C        0.27482378      -1.13271531       6.71432445       85       0.03974536       0.08377132       0.03778470
S        7.53628967       0.17696809       4.81569236       86       0.19511321      -0.02865432      -0.00963154
S        0.37182474       4.99326235       1.01749090       87      -0.05167086       0.18266700      -0.00722410
S       -5.63183167       4.87898579       6.95840188       88      -0.23360462       0.05584883      -0.01164766
S        1.53223271       0.06443059      10.75578694       89       0.03300112      -0.16092762      -0.01429075
N        2.88022988       0.98019624       2.92494374       90      -0.75780106      -1.35705936      -0.06971180
N       -0.98344296       4.07859598       8.84296921       91       1.06391788       1.43713307       0.05349529
N        5.12285014       4.38129303       2.96446020       92       0.22283649       0.65059727      -0.00851277
N       -3.21904073       0.67702852       8.80641096       93      -0.35597432      -0.51470125      -0.00679423
N        5.40370615       1.68375815       3.75811948       94       0.94493055      -0.58453405       0.73681313
N        2.54373585       3.58489365       2.12277358       95      -0.56458032       0.43299836      -0.56697667
N       -3.50051988       3.37806772       8.01609474       96      -0.75254357       0.43940556      -0.64089274
N       -0.64500330       1.47374613       9.65041617       97       0.89127249      -0.63033128       0.72393167
N        7.20553711       1.30210660       0.92743162       98       0.05260009      -0.05758047       0.00166507
N        1.34805908       4.87858641       4.97313821       99      -0.00279647       0.09110433       0.02051226
N       -5.30397788       3.75795614      10.84315229      100      -0.05651158       0.03238700      -0.02658820
N        0.55409254       0.18075304       6.79680172      101      -0.02465516      -0.06032535       0.00074555
O        3.20456073       3.04047524       4.90146328      102      -0.01919265       0.21208465       0.13219744
O        4.72546693       2.15598735       0.98172674      103       0.13953266       0.01051512       0.00775798
O       -1.30284106       2.01780990       6.87261321      104       0.07980127      -0.14465341      -0.06823121
O       -2.82128358       2.90513110      10.79189048      105      -0.19603172      -0.06732643       0.03928588
106