104
Lattice="10.54679473 0.0 0.0 -4.0266129323917035 11.313338011549213 0.0 -3.261625152532843 -5.65841989637564 11.12957668180934" Properties=species:S:1:pos:R:3:spacegroup_kinds:I:1:forces:R:3 spacegroup="P 1" unit_cell=conventional occupancy="_JSON {\"0\": {\"Cu\": 1}, \"1\": {\"Cu\": 1}, \"2\": {\"Cu\": 1}, \"3\": {\"Cu\": 1}, \"4\": {\"H\": 1}, \"5\": {\"H\": 1}, \"6\": {\"H\": 1}, \"7\": {\"H\": 1}, \"8\": {\"H\": 1}, \"9\": {\"H\": 1}, \"10\": {\"H\": 1}, \"11\": {\"H\": 1}, \"12\": {\"H\": 1}, \"13\": {\"H\": 1}, \"14\": {\"H\": 1}, \"15\": {\"H\": 1}, \"16\": {\"H\": 1}, \"17\": {\"H\": 1}, \"18\": {\"H\": 1}, \"19\": {\"H\": 1}, \"20\": {\"H\": 1}, \"21\": {\"H\": 1}, \"22\": {\"H\": 1}, \"23\": {\"H\": 1}, \"24\": {\"H\": 1}, \"25\": {\"H\": 1}, \"26\": {\"H\": 1}, \"27\": {\"H\": 1}, \"28\": {\"H\": 1}, \"29\": {\"H\": 1}, \"30\": {\"H\": 1}, \"31\": {\"H\": 1}, \"32\": {\"H\": 1}, \"33\": {\"H\": 1}, \"34\": {\"H\": 1}, \"35\": {\"H\": 1}, \"36\": {\"H\": 1}, \"37\": {\"H\": 1}, \"38\": {\"H\": 1}, \"39\": {\"H\": 1}, \"40\": {\"C\": 1}, \"41\": {\"C\": 1}, \"42\": {\"C\": 1}, \"43\": {\"C\": 1}, \"44\": {\"C\": 1}, \"45\": {\"C\": 1}, \"46\": {\"C\": 1}, \"47\": {\"C\": 1}, \"48\": {\"C\": 1}, \"49\": {\"C\": 1}, \"50\": {\"C\": 1}, \"51\": {\"C\": 1}, \"52\": {\"C\": 1}, \"53\": {\"C\": 1}, \"54\": {\"C\": 1}, \"55\": {\"C\": 1}, \"56\": {\"C\": 1}, \"57\": {\"C\": 1}, \"58\": {\"C\": 1}, \"59\": {\"C\": 1}, \"60\": {\"C\": 1}, \"61\": {\"C\": 1}, \"62\": {\"C\": 1}, \"63\": {\"C\": 1}, \"64\": {\"C\": 1}, \"65\": {\"C\": 1}, \"66\": {\"C\": 1}, \"67\": {\"C\": 1}, \"68\": {\"C\": 1}, \"69\": {\"C\": 1}, \"70\": {\"C\": 1}, \"71\": {\"C\": 1}, \"72\": {\"C\": 1}, \"73\": {\"C\": 1}, \"74\": {\"C\": 1}, \"75\": {\"C\": 1}, \"76\": {\"C\": 1}, \"77\": {\"C\": 1}, \"78\": {\"C\": 1}, \"79\": {\"C\": 1}, \"80\": {\"C\": 1}, \"81\": {\"C\": 1}, \"82\": {\"C\": 1}, \"83\": {\"C\": 1}, \"84\": {\"C\": 1}, \"85\": {\"C\": 1}, \"86\": {\"C\": 1}, \"87\": {\"C\": 1}, \"88\": {\"C\": 1}, \"89\": {\"C\": 1}, \"90\": {\"C\": 1}, \"91\": {\"C\": 1}, \"92\": {\"Br\": 1}, \"93\": {\"Br\": 1}, \"94\": {\"Br\": 1}, \"95\": {\"Br\": 1}, \"96\": {\"N\": 1}, \"97\": {\"N\": 1}, \"98\": {\"N\": 1}, \"99\": {\"N\": 1}, \"100\": {\"N\": 1}, \"101\": {\"N\": 1}, \"102\": {\"N\": 1}, \"103\": {\"N\": 1}}" energy=-14.482528686523438 free_energy=-14.482528686523438 stress="-0.8632310032844543 -0.4751201570034027 -0.005229818169027567 -0.4751201570034027 -0.717203676700592 -0.06263779103755951 -0.005229818169027567 -0.06263779103755951 -0.41597139835357666" pbc="T T T"
Cu       5.91319149       4.91348405       3.68988261        0      -4.49908924       1.23654687       6.84086561
Cu      -2.73713145       5.66148878       3.43616964        1       7.17442608      -1.88016963       1.38745880
Cu      -0.95953722       0.31128839       7.43546691        2      -0.25778306       2.60068274      -2.14167213
Cu       6.89491209      -0.11876537       8.13536392        3      -0.77086186      -7.00674534      -4.36607838
H        4.41965788       6.61997153       6.10611362        4       2.11078763       8.44230461      -9.03306770
H       -2.78467673       5.01227346       6.24631267        5       1.54792547      -2.76531577      -0.72281021
H       -0.55829895      -1.56094560       4.76443226        6     -68.21774292     -43.78511047      35.10231018
H        5.41665756       2.07100888       6.60828941        7     -28.25752449     -60.77437210     -20.57306671
H        3.86377929       8.02303011       7.60381633        8       1.46658671      -1.52604294      -5.70127583
H       -3.35988676       3.15006235       7.45378471        9      -1.50050783      -0.62885320       1.95020580
H       -1.04303851      -1.18884378       4.00316457       10     -69.96025848     -63.95403671      98.35084534
H        6.48264470       2.30282868       4.28320341       11      -2.19207883      -2.01301861       0.04659584
H        5.05011227       3.43691442       9.38792984       12       0.29322672      12.04463482      -1.32143164
H        1.82841549      -2.08255256       7.78982582       13      -0.43385383       1.13749087       1.75292265
H       -1.38184529       3.35770811       3.67189957       14      -6.49254322       9.51115227      -7.37732744
H        3.08453665       9.61558371       1.99919146       15      -0.03623438       0.76179963       0.71221668
H        5.57362561       2.38796066       6.74143093       16      29.33058357      43.16466904      31.50527573
H        0.51657909      -3.12434837       5.37175683       17       4.74318218      -4.71368504      -0.71887654
H       -1.43564789       3.08029053       5.43838250       18      -2.37693095       2.40957761       8.49901962
H        2.53963809       9.20258005       5.63591292       19      -2.38392282      -5.76295376       3.54210734
H       -0.94361890      -3.83244851      10.28057127       20       9.23393059     -29.12491798       7.93405914
H       -4.38638139       4.87039812       9.47642359       21       4.09440327      -9.60748386     -17.20296097
H        4.33530251      11.06248025       0.81864076       22      -5.38950205       7.20303583       1.25467587
H        7.88152694       0.59210658       0.43799329       23       5.65956020       3.59479070       5.74453020
H        4.42950793       8.16098385      -0.68669492       24     112.10145569      -6.51144743     -18.99576950
H        7.45895008       4.00721405       1.02437613       25      -3.29550052       4.30831432       0.06210874
H       -2.16941356      -2.43606509      11.80786439       26      45.60935211      26.86443329     -23.33413124
H       -3.12254447       2.73138469      11.65399563       27      -5.99009514       4.50449038       0.01693109
H        0.24637359       0.84949120       9.78900209       28       0.25732762      -0.31426692       1.72391522
H        4.72711628      -0.58716881       9.53215267       29       0.61577249       0.21353576       0.25238740
H        4.19158615       5.61341035      -0.04724070       30      -7.23562098      -4.04682398      -2.25820136
H       -1.74660114       7.24718065       0.27964474       31      -0.04096937      -2.89114809      -0.77228928
H        0.37663842       3.46551100       7.41639936       32      17.94341087       7.04501915       1.35854912
H        5.96405354      -3.86328222       7.57928079       33     -16.46609116      44.68379211     -98.41685486
H        3.80482399       1.38046985       3.83694417       34       2.21602917      -2.59384108       3.11567307
H       -2.11319447       9.94893411       3.36689029       35      -8.90973473       0.42602620      -0.95719010
H        0.98692317       4.35422845       7.81400422       36      -8.04783440      -8.78709221      -5.57381821
H       -0.17909885       5.68757509       7.00059734       37      -1.81787395       3.54444599       0.90809667
H        2.34435589       1.45920138       2.53207661       38     -19.17200661      11.12627792     -53.80894470
H        4.46333418      -0.77319476       3.69663074       39      -7.03766012       6.82181215      -5.06941414
C        4.41930152       5.95562910       6.66935333       40      -1.79097378      -9.87623882      -0.48114491
C       -3.46995728       4.59294803       5.41133749       41      -0.96212929       3.46266699      -1.53082883
C       -0.60673827       0.52923917       5.35508246       42     164.61376953    -173.70994568    -182.62121582
C        5.52215804      -0.07699579       5.93209126       43      -4.80402613       2.43348789      -0.56575930
C        3.67969551       7.00008032       7.33949419       44      -1.74141932      -0.88259935       9.39515972
C       -3.66559506       4.91426713       8.16537133       45      -6.87470484     -33.52619171      24.56018448
C       -0.14989197      -0.84923658       3.45298742       46    -519.95697021   -1145.42199707   -1180.51977539
C        5.43084163       0.80918465       4.05753389       47      -1.23624980      -0.00169832       0.88036203
C        4.18576987       4.90488861       9.01628973       48       2.54250097       9.72620201      -1.27518439
C       -3.44244604       5.74529947       7.63967700       49      13.69554996      41.69503784     -11.60259819
C       -0.01394680      -0.45851030       3.77520154       50     597.63549805    1514.30908203    1415.16674805
C        5.45220850      -1.05900143       3.16916448       51       6.72988510      -3.27813697       4.60639143
C        3.73617492       2.97866214       7.41845412       52       4.32813263      -2.54579735      -4.53998470
C        1.98600455      -4.63755826       7.27978857       53      -3.73160267      -3.39686489       2.28608179
C       -0.02448117       1.69650907       3.98585689       54       6.83986616     -26.81618500      -9.89975166
C        1.56807739       8.66030927       2.56542120       55       1.94397235       6.49796104       0.50638485
C        5.40487505       3.08540127       6.25130224       56      -6.18315649      20.15991592      -9.07779312
C       -2.77723159       7.07980454       5.48988199       57      33.91291046      59.92907333     -11.75771141
C       -0.66605619       2.83653466       3.89220375       58      -2.34283876      -6.83190918      -0.30140686
C        6.44868599      -2.06590592       4.58662440       59       5.89919138       2.92986894       0.14456367
C        4.01444447       5.61917437      10.06323819       60      22.79813576      49.47500229     115.37139893
C       -1.30157368       5.34170590      10.22513605       61      -1.64963126       3.32573938       2.02166390
C        0.38419741      -0.75857210       1.93682523       62      72.80158997     -65.11972046    -191.87075806
C        5.22472734       0.72345882       1.91578432       63       0.04021102       4.71150541       2.08531690
C       -3.13765684      -5.04360662      11.37972978       64    -272.34762573    -256.12747192     -80.14413452
C       -2.65306101       4.39417136      11.25623471       65      14.45797539       8.54910088      -0.91681099
C        6.50640616      11.24695018       0.39505484       66     -24.88998604     -85.80393982       9.13770294
C        5.55423128       1.21397395       0.80531698       67       3.62967634       8.11958027      -8.39998055
C        3.04814114       5.57394371      10.45227609       68     -31.29291534     -46.85987091     -35.94385529
C        2.21245983      -4.21428980       9.89329347       69       0.08322740      -4.35891724       6.90551376
C        1.33278385       1.86255740       0.57258099       70    1424.14245605     344.75286865    -495.92022705
C        1.06833852       9.95748404       1.62782848       71       6.53592777       1.23184109      -8.06114197
C        1.65863454       3.28512476       8.73065963       72     156.78694153     -81.22145081     241.52767944
C        3.42639289      -3.52530524      10.39037700       73       2.22775483       0.35537159       8.29686546
C        0.93539080       1.71831141       0.66197385       74   -1056.33276367      34.70355988     484.46667480
C       -0.57791321       9.23999778       0.70132236       75     -10.29140472      -3.34629345       6.20019150
C        1.70968594       2.41483083      11.11968078       76      35.11299515      12.18959427      24.89533615
C        5.27917759      -3.22894110      10.28640710       77      -3.71141243       1.44093525     -17.81183052
C        1.80984833       3.81784455      -0.03809571       78     -75.16257477     -52.41847229      49.60261917
C       -1.96626676       9.01125588       1.51438250       79      28.09606552     -32.33361435     -19.18682671
C        0.65886259       2.49712313      10.43166792       80    -139.14932251      -4.45367146       1.45683765
C        4.27491788      -2.37635011       8.98666151       81       2.39597082      -3.70598078       1.08978128
C        3.83573155       3.10959725       1.46354323       82      19.08929443      17.91009331      18.26957703
C       -2.29645201       7.71880329       1.60553281       83      -0.84302664       2.44953942     -20.33506393
C       -0.50897648       2.63085984       8.57056184       84     -65.50601196     197.00924683      44.09943390
C        6.04408237      -4.08934767       8.04063562       85      18.22723961     -48.24950790     105.03170013
C        2.23482777       2.00139285       4.11262712       86       0.54417419      -9.52585030     -17.32895470
C       -2.08905711       9.58914556       2.37346574       87      18.96878242       7.38569546      19.41114426
C        1.25925081       3.47225304       8.21738323       88    -165.43659973      88.36166382    -255.59634399
C        4.16493858      -3.44810167       7.90984366       89      -0.53509974       1.84032905       1.33761549
C        2.17344446       0.95724861       2.99572917       90     -50.45806885     -62.29771423      58.28001785
C       -1.58741416      10.66500337       1.89706828       91     -41.98348236      33.31410217      -5.04603100
Br       6.61983402       4.45208014       2.35053400       92       3.72771335      -2.98483920     -10.17678452
Br       4.63857275       7.11335097       2.75729787       93      -9.57411003     -12.05623817       2.91066408
Br      -3.89823494       1.45284063       8.37302806       94      -2.11202836      11.08346176       3.06891632
Br      -1.38006796      -1.45846244       8.37226468       95       3.65819836      -2.38184261       8.05205345
N        4.52012279       4.85781241       5.61260879       96      -0.14869648      -1.96904147       4.33173275
N       -3.27581295       6.45179977       5.61280300       97     -34.77507782     -57.62778473       9.18633175
N       -1.26156384       0.79714100       5.51697946       98    -151.79438782      25.10595322      28.21487808
N        6.53437407      -0.79686858       5.51676288       99      11.34267807       3.44562578      -2.88557339
N       -0.33228427       2.09197509       8.43713821      100      51.84938049    -211.26687622     -56.14334488
N        5.60323216      -2.09452347       8.43624005      101     -10.65070915       2.77942300       1.98148513
N        3.59084290       3.56295948       2.69248667      102      -3.59137678     -13.02901459     -25.52715683
N       -2.34467105       7.74945465       2.69332584      103      -6.41277552      -0.21523046      16.97339249
104
Lattice="10.54679473 0.0 0.0 -4.0266129323917035 11.313338011549213 0.0 -3.261625152532843 -5.65841989637564 11.12957668180934" Properties=species:S:1:pos:R:3:spacegroup_kinds:I:1:forces:R:3 spacegroup="P 1" unit_cell=conventional occupancy="_JSON {\"0\": {\"Cu\": 1}, \"1\": {\"Cu\": 1}, \"2\": {\"Cu\": 1}, \"3\": {\"Cu\": 1}, \"4\": {\"H\": 1}, \"5\": {\"H\": 1}, \"6\": {\"H\": 1}, \"7\": {\"H\": 1}, \"8\": {\"H\": 1}, \"9\": {\"H\": 1}, \"10\": {\"H\": 1}, \"11\": {\"H\": 1}, \"12\": {\"H\": 1}, \"13\": {\"H\": 1}, \"14\": {\"H\": 1}, \"15\": {\"H\": 1}, \"16\": {\"H\": 1}, \"17\": {\"H\": 1}, \"18\": {\"H\": 1}, \"19\": {\"H\": 1}, \"20\": {\"H\": 1}, \"21\": {\"H\": 1}, \"22\": {\"H\": 1}, \"23\": {\"H\": 1}, \"24\": {\"H\": 1}, \"25\": {\"H\": 1}, \"26\": {\"H\": 1}, \"27\": {\"H\": 1}, \"28\": {\"H\": 1}, \"29\": {\"H\": 1}, \"30\": {\"H\": 1}, \"31\": {\"H\": 1}, \"32\": {\"H\": 1}, \"33\": {\"H\": 1}, \"34\": {\"H\": 1}, \"35\": {\"H\": 1}, \"36\": {\"H\": 1}, \"37\": {\"H\": 1}, \"38\": {\"H\": 1}, \"39\": {\"H\": 1}, \"40\": {\"C\": 1}, \"41\": {\"C\": 1}, \"42\": {\"C\": 1}, \"43\": {\"C\": 1}, \"44\": {\"C\": 1}, \"45\": {\"C\": 1}, \"46\": {\"C\": 1}, \"47\": {\"C\": 1}, \"48\": {\"C\": 1}, \"49\": {\"C\": 1}, \"50\": {\"C\": 1}, \"51\": {\"C\": 1}, \"52\": {\"C\": 1}, \"53\": {\"C\": 1}, \"54\": {\"C\": 1}, \"55\": {\"C\": 1}, \"56\": {\"C\": 1}, \"57\": {\"C\": 1}, \"58\": {\"C\": 1}, \"59\": {\"C\": 1}, \"60\": {\"C\": 1}, \"61\": {\"C\": 1}, \"62\": {\"C\": 1}, \"63\": {\"C\": 1}, \"64\": {\"C\": 1}, \"65\": {\"C\": 1}, \"66\": {\"C\": 1}, \"67\": {\"C\": 1}, \"68\": {\"C\": 1}, \"69\": {\"C\": 1}, \"70\": {\"C\": 1}, \"71\": {\"C\": 1}, \"72\": {\"C\": 1}, \"73\": {\"C\": 1}, \"74\": {\"C\": 1}, \"75\": {\"C\": 1}, \"76\": {\"C\": 1}, \"77\": {\"C\": 1}, \"78\": {\"C\": 1}, \"79\": {\"C\": 1}, \"80\": {\"C\": 1}, \"81\": {\"C\": 1}, \"82\": {\"C\": 1}, \"83\": {\"C\": 1}, \"84\": {\"C\": 1}, \"85\": {\"C\": 1}, \"86\": {\"C\": 1}, \"87\": {\"C\": 1}, \"88\": {\"C\": 1}, \"89\": {\"C\": 1}, \"90\": {\"C\": 1}, \"91\": {\"C\": 1}, \"92\": {\"Br\": 1}, \"93\": {\"Br\": 1}, \"94\": {\"Br\": 1}, \"95\": {\"Br\": 1}, \"96\": {\"N\": 1}, \"97\": {\"N\": 1}, \"98\": {\"N\": 1}, \"99\": {\"N\": 1}, \"100\": {\"N\": 1}, \"101\": {\"N\": 1}, \"102\": {\"N\": 1}, \"103\": {\"N\": 1}}" energy=-51.73332214355469 free_energy=-51.73332214355469 stress="-0.3594837784767151 -0.47990307211875916 0.15544790029525757 -0.47990307211875916 -0.769822895526886 0.12571005523204803 0.15544790029525757 0.12571005523204803 -0.40730273723602295" pbc="T T T"
Cu       6.89113437       3.91483535       3.98315465        0     -33.14873505      38.13254547       2.70486927
Cu      -3.18162975       6.50173522       2.43994017        1      -3.60349894      -3.73017883      -0.48496717
Cu      -0.96913194       1.10940943       6.45688393        2    -384.25210571    -307.96829224     335.91574097
Cu       5.90441438      -1.11875297       9.01590727        3     285.55487061    -157.40887451     338.24395752
H        5.25615214       5.76016260       6.59989847        4      -2.25225210       6.75947046      -4.33818293
H       -3.74099498       6.01204577       7.11381321        5     -13.95365334      -7.49711800     -49.70264816
H       -1.06011636      -0.68767985       3.81621123        6      -5.78200817      -9.47707558      -8.78553677
H        6.40219759       1.56170585       7.50650644        7     -31.32876587     -31.87131310     -79.37201691
H        3.43531664       7.26855386       8.52637041        8      41.54718781       9.35016060      47.35867310
H       -3.08297422       3.48031825       6.46078432        9       7.17036104       3.78468084      -7.11702442
H       -1.55978694      -1.79528086       4.51951722       10      -2.25382972      -2.49770093      -0.16852148
H        7.32363191       3.14094920       4.12256289       11      -2.87925577     -18.51123428      18.03195572
H        4.24001612       4.39512060      10.18531982       12      -3.59201694       5.95258808       9.81675243
H        2.62902389      -2.69408585       8.23086231       13      -2.32845378       0.21541858      -0.35786051
H       -0.66139310       2.51625408       2.70822991       14       6.75199318       4.38411474      -4.40527058
H        3.87959186       9.41837699       1.97537329       15      -3.02697778      -5.50299358      -6.21398497
H        4.59389280       2.05016046       6.96448268       16     605.84936523    -938.29022217   -1050.34167480
H        1.30909097      -2.38432857       4.47054056       17       2.69340014       0.51658607      -0.89073479
H       -0.91291122       2.69385168       4.43986678       18     -10.22581863     -32.08439636       6.00636101
H        3.51665299       8.93831416       6.40235516       19       2.10841894      -0.52834088       1.90741909
H       -0.49101053      -4.81720766      11.24180149       20       0.66235018      -1.24105132       0.42215562
H       -3.85150337       4.08853979       8.52736768       21       1.16083264       8.01753807       5.32200241
H        3.38519267      10.26705531       0.19284099       22      -0.83156824      -0.89117491      -0.37402138
H        8.35597056      -0.10046875      -0.40017891       23       2.82462096       1.99533224       0.10093690
H        5.27516647       8.20611846       0.16334730       24       0.68872213       3.48642206       1.94411743
H        6.87798086       3.81137056       1.88303391       25      -0.18341303      -0.79316127      -6.87404013
H       -2.89798235      -1.73100288      11.91471470       26      -1.87189627       0.06941050      -3.72011733
H       -3.87313802       2.69274272      11.61714303       27       0.04773995      -1.32720733     -11.37384224
H        0.86305290      -0.02216677       8.87429258       28       3.37784028       1.94149613      -5.69229937
H        5.72614979      -0.97825176       8.77019330       29    -226.09689331     253.51202393    -354.65194702
H        5.11392845       4.61413305       0.84943817       30      -0.54268664       0.82738799       0.38054863
H       -2.05373252       7.92772103       0.63717197       31       1.90902853       0.85927737       1.15401888
H        1.19070590       2.83816889       7.64897383       32      20.54305649       5.42187214       0.55784857
H        4.96454015      -3.62304277       8.43330222       33      -1.86263514      -1.63243449      -2.76184797
H        3.08569335       1.09595569       3.87237967       34      -1.47298944       0.01296210     -19.64825439
H       -1.81568012       9.54521311       2.36725448       35       7.66196585     -12.77002144       7.15079069
H        0.32942910       5.10253139       7.01546666       36      -3.38004684      -4.57796431      -1.97479963
H       -1.13865757       6.18465420       7.86967818       37       0.05860484       0.70916647      -1.11075401
H        1.39708764       1.30672678       2.18053247       38      -3.85695148       4.49521637      -8.28471470
H        3.47778479      -0.62633016       4.10059204       39       4.54695225      -4.79437780      -7.07988834
C        4.26441170       5.49622204       5.82442888       40     -27.03517151      79.34240723      31.26987839
C       -4.42620747       5.54916770       4.62269878       41       8.83582592       7.21725559       5.01505566
C       -0.46213168       1.49244844       6.29694493       42     493.66613770     351.01748657    -338.79058838
C        6.31128247      -0.30219122       6.92146173       43     -11.77753258      57.20589828      18.98230362
C        2.68079462       6.92859737       7.52848406       44     -42.18025208     -36.76027298     -63.64066315
C       -3.03019954       5.40824343       8.46378824       45       6.84356403      -5.09225130      10.20352554
C       -0.72032380      -0.23479268       2.58692144       46     -62.43334198     -31.82237244     -43.03262711
C        5.00761676       1.47397612       3.18250409       47      -7.56107616      -3.97199178      -7.92345190
C        3.75692792       5.76825593       8.08996077       48      11.53190804     -10.49414730       7.45559740
C       -3.54512013       6.12463690       7.76911406       49       6.42291498      18.86029816      40.99586868
C       -0.09900046       0.53201774       3.77703158       50     -10.53880692      23.26179123      60.68603897
C        5.34649828      -2.03821777       2.99165777       51     356.94860840     420.30816650     -59.15674210
C        4.73612151       2.15552867       7.14312206       52    -721.77264404     870.00024414    1368.36499023
C        2.77467056      -3.69016693       6.73510570       53       0.31852192      -2.09193826       1.28107214
C       -0.71726321       1.76562741       3.56906474       54       2.98975825      -8.80869102      22.04570770
C        0.95690245       8.78924745       3.17369721       55    -330.16058350    -458.63412476     212.15986633
C        5.62894555       2.92758200       6.28857987       56     175.74916077     127.86473846    -177.81143188
C       -2.80977633       8.03029454       5.02577576       57      -3.57944369      -8.11277390       2.81309366
C       -0.59346251       3.32275437       4.63552469       58      17.44547081      37.50733566      21.49388695
C        5.50162439      -1.98165675       5.08565821       59     -21.13974953     -13.00891590     -50.48143387
C        4.79858350       6.57022954      10.82361130       60       8.91705704      14.02902126      -4.76822090
C       -0.30332599       4.67703663       9.22841055       61       2.56742215       2.19933367       0.33369562
C       -0.20036472       0.12177289       2.86648889       62      83.17112732      23.47228050     -10.39397526
C        4.75577498       0.09133762       2.91353406       63     -10.48665047      -3.89523649     -12.46614552
C       -2.32154140      -5.76967595      10.98437536       64     -11.35759640     -16.50696564      -8.83454323
C       -3.55901626       5.36133975      12.17823148       65      -6.67168188       1.83923447      -0.45945996
C        5.56802895      11.51159716      -0.43956838       66       1.83225274      -3.24600196       0.26466167
C        5.83641874       0.54452164       1.30309641       67       1.01181269      -1.88257170       4.02663612
C        2.95348594       6.52170590       9.88552008       68       5.99103737      -9.82362747      -5.47696209
C        2.80914262      -3.54749150       9.30585906       69       4.21901274      -3.36216044       1.65692723
C        2.31999478       2.57166027      -0.42729968       70      -6.77596378     -94.85723877     -30.04093742
C        1.45075033       9.77996160       2.15037280       71      -9.61133003      62.48430634     -88.22161865
C        1.95720801       3.70823653       9.48414430       72      -2.42851162       0.79068875       5.44771767
C        4.21267054      -4.40040311       9.79222132       73      -4.80889225       3.72089338      -3.46136951
C        0.19770953       0.73485391       1.22711899       74      -8.45773029      -8.42588329       8.13824940
C        0.39071627       8.80610511      -0.28263994       75     -11.92616463      -4.46292400      -1.40227962
C        1.96535697       1.76699867      12.00196530       76       4.04291868      -1.42970920      -4.97124100
C        6.25061778      -2.57394799      10.14766302       77      -1.80640578      -5.99011135       4.04590225
C        2.34682037       3.25173525      -0.27094534       78      -3.18897009      97.51845551       6.86540508
C       -2.79139293       8.88773297       0.81656207       79       1.50546551      -7.48434782      -3.95286369
C        0.18543976       1.89813937      10.40251425       80      -6.20942307      -1.76474130       6.92657566
C        4.97056035      -1.60654218       9.59339578       81     -50.45574951     -34.91284180      56.63804626
C        2.89853226       2.74548171       0.65702461       82      11.26670551      -2.56185508      22.12085724
C       -1.87095475       8.34306187       2.34610562       83      24.21939087      62.29675674     -26.62637901
C       -1.50842478       1.77834170       9.55424191       84      13.32365799       1.69694722     -18.64291954
C        7.04107275      -4.06560829       8.03801694       85      -1.22255707      54.49225998      15.68317986
C        2.24504884       2.36361421       4.13985621       86      -8.45593071     -10.42611504      -0.77072716
C       -2.14501079      10.53161837       2.05063504       87      10.13996124       9.03383064     -12.36898994
C        1.78460072       2.53047712       8.73750207       88      26.78610802       5.70524883      -6.48731232
C        5.11971659      -2.89488879       7.15659336       89       0.95930874     -15.41695118      -2.37149668
C        2.07235972       0.75316998       3.23495817       90       7.60270071      -9.40271759       5.16178131
C       -2.47882410       9.78234286       2.89580669       91      -0.91153908     -12.98067093       0.89530516
Br       7.57384445       3.47068525       3.05529431       92       1.01670885       2.00030065     -30.62321091
Br       4.63857275       7.11335097       2.75729787       93       0.15479741      -1.16008008      -2.48590636
Br      -3.89823494       1.45284063       8.37302806       94     -36.66487122     -61.21543503     -33.86954117
Br      -1.38006796      -1.45846244       8.37226468       95     -16.33150291     -12.75577259      -0.89063251
N        4.52012279       4.85781241       5.61260879       96      27.64032745     -96.75677490     -24.85688400
N       -3.27581295       6.45179977       5.61280300       97      -4.08022022      -3.23993611      -1.06780565
N       -1.26156384       0.79714100       5.51697946       98     -60.80590820     -38.12287140      -3.44735527
N        6.53437407      -0.79686858       5.51676288       99      -2.72562313       4.90530491      -8.56193447
N       -0.33228427       2.09197509       8.43713821      100     -30.05774879     -16.65981293      -0.49640834
N        5.60323216      -2.09452347       8.43624005      101     -13.00946808     -45.83774567     -26.34963417
N        3.59084290       3.56295948       2.69248667      102       2.59792781      -3.28910398       8.69333935
N       -2.34467105       7.74945465       2.69332584      103     -29.51918411     -39.15149689      24.24520111
104