74
Lattice="6.14830958 0.0 0.0 -2.583005942917936 9.743214490060733 0.0 0.0002198407244109067 -0.00039529365751092473 13.978410462682035" Properties=species:S:1:pos:R:3:spacegroup_kinds:I:1:forces:R:3 spacegroup="P 1" unit_cell=conventional occupancy="_JSON {\"0\": {\"Cu\": 1}, \"1\": {\"Cu\": 1}, \"2\": {\"Cu\": 1}, \"3\": {\"Cu\": 1}, \"4\": {\"H\": 1}, \"5\": {\"H\": 1}, \"6\": {\"H\": 1}, \"7\": {\"H\": 1}, \"8\": {\"H\": 1}, \"9\": {\"H\": 1}, \"10\": {\"H\": 1}, \"11\": {\"H\": 1}, \"12\": {\"H\": 1}, \"13\": {\"H\": 1}, \"14\": {\"H\": 1}, \"15\": {\"H\": 1}, \"16\": {\"H\": 1}, \"17\": {\"H\": 1}, \"18\": {\"H\": 1}, \"19\": {\"H\": 1}, \"20\": {\"H\": 1}, \"21\": {\"H\": 1}, \"22\": {\"H\": 1}, \"23\": {\"H\": 1}, \"24\": {\"C\": 1}, \"25\": {\"C\": 1}, \"26\": {\"C\": 1}, \"27\": {\"C\": 1}, \"28\": {\"C\": 1}, \"29\": {\"C\": 1}, \"30\": {\"C\": 1}, \"31\": {\"C\": 1}, \"32\": {\"C\": 1}, \"33\": {\"C\": 1}, \"34\": {\"C\": 1}, \"35\": {\"C\": 1}, \"36\": {\"C\": 1}, \"37\": {\"C\": 1}, \"38\": {\"C\": 1}, \"39\": {\"C\": 1}, \"40\": {\"C\": 1}, \"41\": {\"C\": 1}, \"42\": {\"C\": 1}, \"43\": {\"C\": 1}, \"44\": {\"C\": 1}, \"45\": {\"C\": 1}, \"46\": {\"C\": 1}, \"47\": {\"C\": 1}, \"48\": {\"C\": 1}, \"49\": {\"C\": 1}, \"50\": {\"C\": 1}, \"51\": {\"C\": 1}, \"52\": {\"C\": 1}, \"53\": {\"C\": 1}, \"54\": {\"C\": 1}, \"55\": {\"C\": 1}, \"56\": {\"C\": 1}, \"57\": {\"C\": 1}, \"58\": {\"C\": 1}, \"59\": {\"C\": 1}, \"60\": {\"N\": 1}, \"61\": {\"N\": 1}, \"62\": {\"N\": 1}, \"63\": {\"N\": 1}, \"64\": {\"N\": 1}, \"65\": {\"N\": 1}, \"66\": {\"N\": 1}, \"67\": {\"N\": 1}, \"68\": {\"Cl\": 1}, \"69\": {\"Cl\": 1}, \"70\": {\"Cl\": 1}, \"71\": {\"Cl\": 1}, \"72\": {\"Cl\": 1}, \"73\": {\"Cl\": 1}}" energy=-499.3710021972656 free_energy=-499.3710021972656 stress="-0.0063803293742239475 -0.002481866627931595 -0.0025281324051320553 -0.002481866627931595 -0.013884719461202621 -0.002086665015667677 -0.0025281324051320553 -0.002086665015667677 -0.0062596616335213184" pbc="T T T"
Cu       1.37949618       0.39362704       3.52545242        0      -0.31220877      -0.12095714      -0.08230743
Cu       2.18320911       9.30081176      10.47246619        1       0.57625014       0.35736310       0.14440276
Cu       2.25795808       8.67142322       3.53581594        2      -0.78462636       0.45434797       0.14952263
Cu       1.32534508       1.14569120      10.44207291        3       0.31338188      -0.80176026       0.23450038
H        1.60421115       0.90211720       0.36035730        4       1.81197464       0.98631620       0.80785310
H        1.89452626       8.86116004       7.40008605        5       0.24042839       0.26666421      -0.27991718
H        1.95512830       8.82800249      13.58016605        6      -0.57445186      -0.30093265      -0.20386308
H        1.68547526       0.91102080       6.56050461        7      -0.73600316      -0.42267555       0.62206018
H        3.28582446       2.02910414      12.90048590        8       0.11755878       0.27236280       1.54113889
H        0.28007658       7.64460857       5.93453696        9      -0.39576942      -0.11078352       1.36989152
H        0.24288709       7.65832138       1.02808739       10       0.32990649       0.13913025       2.29940557
H        3.31254593       2.03811758       8.04461769       11      -0.10822951      -0.12246756       1.10390794
H        5.18974544       3.32409474       0.08465117       12      -0.26405376       0.03702202       0.13887754
H       -1.59737936       6.39876305       7.04924929       13       0.14341910      -0.06556123       0.40577582
H       -1.67335532       6.39750424      13.92130561       14       0.50978416       0.09111853      -0.34281799
H        5.20839192       3.31904052       6.92485184       15       0.00583722      -0.04114391      -0.22186154
H        2.31434425       5.48556500       0.94837193       16       0.57347107       0.17795181       1.96500921
H        1.22227279       4.26191542       8.00547183       17       0.17038286       0.15178768      -0.29446256
H        1.21018731       4.32589687      13.02604361       18      -0.00123168      -0.19024341      -0.79423928
H        2.35103304       5.44701131       6.01450571       19       0.35915411       0.21554069       0.73046148
H        4.19357231       6.57255049       2.23780317       20      -0.96832085      -0.72015262       0.78913796
H       -0.62050810       3.17362666       9.27832725       21      -2.02193952      -1.09240913      -1.42809021
H       -0.58259884       3.10361283      11.68838017       22       0.06890803       0.18823777       0.34002119
H        4.22680146       6.57596020       4.69420178       23       0.83188689       0.42921638       0.55189961
C        2.51121803       1.47218009       0.85202476       24      -4.61453629      -3.02455854      -0.26160365
C        1.06895597       8.35239515       7.86673183       25      -0.85710025      -1.74153829      -1.13491940
C        1.10317978       8.28038394      13.12513718       26      -0.33897913      -0.22402696       2.01393890
C        2.48901374       1.45465342       6.12294473       27      -0.48085874      -0.39469773       4.75995827
C        3.38217915       2.12292382       0.06188965       28       1.12779999       0.78672528      -2.34348655
C        0.12228865       7.58363009       7.06440988       29       4.16870832       3.34497690      -2.31474066
C        0.16221182       7.58328332      13.98244180       30       1.07006407       0.84805489      -3.64919758
C        3.40153985       2.07059926       6.99178500       31       1.81403279       1.28642964      -3.57152295
C        4.40465877       2.82667693       0.66710999       32       1.40083826      -0.04082318       0.53105175
C       -0.84673685       6.92377228       7.65614229       33      -2.25660062      -1.66389728      -1.16685605
C       -0.86169947       6.89370881      13.35808258       34      -0.45996797       0.23718114      -0.16720940
C        4.47902592       2.78505764       6.30874364       35      -1.41377091      -0.74068439       2.19052505
C        4.54254814       2.77832004       2.09179267       36      -0.36717847       1.27245080      -2.03651237
C       -0.90813842       6.90951222       9.01013999       37      -1.19938385      -0.02099246       3.40533686
C       -0.92069222       6.93036081      11.95357612       38      -0.41233030      -0.83586085      -0.79130214
C        4.53627698       2.83573983       4.91862692       39      -0.23469681      -0.39535159       0.59826171
C        3.50157261       2.13847687       2.73818104       40       0.56676513      -0.48513335       4.88463879
C        0.01038707       7.64069093       9.79991610       41       0.89810461      -0.62589574      -1.51771581
C        0.07390361       7.65532902      11.20713880       42      -4.39117241      -3.02562833      -0.43092245
C        3.52616035       2.10450003       4.26662240       43       0.68822569       1.14059639      -3.69492722
C       -0.58492353       3.49852435       2.80961854       44       1.77635550       0.77756399      -1.83995962
C        4.17349087       6.25587981       9.74525955       45      -1.01369369      -0.90931112       0.01686980
C        4.18775539       6.20576804      11.19142556       46      -0.11827849       0.52403349       0.70685446
C       -0.52709689       3.54081299       4.20303689       47      -4.03000259      -2.58682585      -1.06799817
C        1.35695324       4.76263757       2.72671107       48       0.28368780       1.27652216       3.36286831
C        2.27210539       4.94042470       9.79940279       49      -1.76862466      -0.88276625      -1.11437285
C        2.23889434       4.92366165      11.21801129       50       1.19067407       0.68996823       0.61100507
C        1.29519923       4.81135070       4.26501364       51       3.33483410       1.29178798      -2.03029180
C        2.39081062       5.49656969       2.11505677       52      -2.12069416      -1.92751980      -3.45845842
C        1.23428369       4.25189816       9.08776914       53      -1.35494769      -0.07283697       0.80327672
C        1.22411064       4.26377943      11.91257690       54      -0.51012796       0.04065325       0.45951644
C        2.41538650       5.49672001       4.94607742       55      -2.12105370      -1.27883697      -1.33941412
C        3.35983635       6.05219280       2.82311032       56       3.40110636       2.18283677      -1.13780808
C        0.14793103       3.63727685       9.76162021       57       4.23198175       2.15872884       1.63212013
C        0.23869906       3.61764313      11.18902993       58      -1.15204382      -0.10079506      -0.21009380
C        3.40237456       6.12261468       4.21054373       59      -0.96869874      -1.30112207       0.80286545
N        2.51544343       1.43852202       2.20355862       60       0.14365989       0.35369778      -1.55009902
N        1.05635988       8.25995854       9.18892173       61      -0.41282550       0.81727225      -0.22927341
N        0.99282141       8.30248533      11.79485632       62       3.28961372       2.01887703       2.08537054
N        2.51422787       1.45250734       4.85352396       63       0.84954798       0.31804591      -3.18995953
N        0.33081108       4.17707713       4.88470125       64       2.00336504       1.58324778       2.94966269
N        3.22183706       5.57224373      11.90745613       65       0.59918791       0.24979970      -0.32590377
N        3.15794478       5.61902219       9.07088423       66       2.08918571       0.89344120       0.05081155
N        0.40631855       4.17626758       2.06573556       67      -2.55025172      -1.83692515      -0.46395117
Cl       3.38975798       9.45626224       1.85129668       68       0.16917264       0.00438019      -0.17240328
Cl       0.17191635       0.32038145       8.78657820       69      -0.23230240      -0.08728874      -0.02643546
Cl       0.17934961       0.27502098      12.20837712       70      -0.05839049       0.10226840      -0.31790048
Cl       3.47666944       9.44763777       5.21111091       71      -0.07508802      -0.10463008       0.03908996
Cl       0.09564202       7.95036635       3.46660349       72       0.59436494       0.55638826       0.10223258
Cl       3.40636487       1.73464382      10.51245564       73      -0.06318606      -0.22595446       0.00267767
74
Lattice="6.14830958 0.0 0.0 -2.583005942917936 9.743214490060733 0.0 0.0002198407244109067 -0.00039529365751092473 13.978410462682035" Properties=species:S:1:pos:R:3:spacegroup_kinds:I:1:forces:R:3 spacegroup="P 1" unit_cell=conventional occupancy="_JSON {\"0\": {\"Cu\": 1}, \"1\": {\"Cu\": 1}, \"2\": {\"Cu\": 1}, \"3\": {\"Cu\": 1}, \"4\": {\"H\": 1}, \"5\": {\"H\": 1}, \"6\": {\"H\": 1}, \"7\": {\"H\": 1}, \"8\": {\"H\": 1}, \"9\": {\"H\": 1}, \"10\": {\"H\": 1}, \"11\": {\"H\": 1}, \"12\": {\"H\": 1}, \"13\": {\"H\": 1}, \"14\": {\"H\": 1}, \"15\": {\"H\": 1}, \"16\": {\"H\": 1}, \"17\": {\"H\": 1}, \"18\": {\"H\": 1}, \"19\": {\"H\": 1}, \"20\": {\"H\": 1}, \"21\": {\"H\": 1}, \"22\": {\"H\": 1}, \"23\": {\"H\": 1}, \"24\": {\"C\": 1}, \"25\": {\"C\": 1}, \"26\": {\"C\": 1}, \"27\": {\"C\": 1}, \"28\": {\"C\": 1}, \"29\": {\"C\": 1}, \"30\": {\"C\": 1}, \"31\": {\"C\": 1}, \"32\": {\"C\": 1}, \"33\": {\"C\": 1}, \"34\": {\"C\": 1}, \"35\": {\"C\": 1}, \"36\": {\"C\": 1}, \"37\": {\"C\": 1}, \"38\": {\"C\": 1}, \"39\": {\"C\": 1}, \"40\": {\"C\": 1}, \"41\": {\"C\": 1}, \"42\": {\"C\": 1}, \"43\": {\"C\": 1}, \"44\": {\"C\": 1}, \"45\": {\"C\": 1}, \"46\": {\"C\": 1}, \"47\": {\"C\": 1}, \"48\": {\"C\": 1}, \"49\": {\"C\": 1}, \"50\": {\"C\": 1}, \"51\": {\"C\": 1}, \"52\": {\"C\": 1}, \"53\": {\"C\": 1}, \"54\": {\"C\": 1}, \"55\": {\"C\": 1}, \"56\": {\"C\": 1}, \"57\": {\"C\": 1}, \"58\": {\"C\": 1}, \"59\": {\"C\": 1}, \"60\": {\"N\": 1}, \"61\": {\"N\": 1}, \"62\": {\"N\": 1}, \"63\": {\"N\": 1}, \"64\": {\"N\": 1}, \"65\": {\"N\": 1}, \"66\": {\"N\": 1}, \"67\": {\"N\": 1}, \"68\": {\"Cl\": 1}, \"69\": {\"Cl\": 1}, \"70\": {\"Cl\": 1}, \"71\": {\"Cl\": 1}, \"72\": {\"Cl\": 1}, \"73\": {\"Cl\": 1}}" energy=-497.03753662109375 free_energy=-497.03753662109375 stress="-0.0051932125352323055 -0.0026162515860050917 -0.0031628035940229893 -0.0026162515860050917 -0.014125486835837364 -0.0025088582187891006 -0.0031628035940229893 -0.0025088582187891006 -0.019103962928056717" pbc="T T T"
Cu       1.34572638       0.37033848       3.51860146        0       0.12315895       0.18267398       0.15430367
Cu       2.20511341       9.25356861      10.45616271        1       0.67961395       0.43194771       0.44608006
Cu       2.24483201       8.62496510       3.57818460        2      -0.60980362       0.60169172       0.09201054
Cu       1.37077544       1.17937618      10.46002705        3       0.36137226      -0.88753796       0.32387292
H        1.64037669       0.90985849       0.38517093        4       1.39175582       0.84088290       0.36657467
H        1.94227026       8.82599922       7.39545479        5      -1.05134475      -0.46922204       0.43866277
H        2.00282693       8.79603320      13.62572085        6      -0.83162099      -0.38487938      -0.47814468
H        1.67040999       0.88227705       6.55423787        7       0.03147259       0.16538188       0.11909576
H        3.28994512       1.97988173      12.90724300        8       0.45501679       0.61026227       2.31165123
H        0.29027729       7.60026029       5.91551680        9      -0.21354407      -0.06068443       1.91311407
H        0.27268769       7.62991777       1.04764110       10       0.33463824       0.13334076       3.22381449
H        3.29818321       1.99225901       8.02555671       11      -0.37548107      -0.20368597       2.67070675
H        5.18078991       3.29543289       0.07626505       12       0.28985584       0.27101278       0.05095221
H       -1.55591473       6.38287451       7.08654604       13      -0.02887513      -0.06897327       0.50103742
H       -1.71681996       6.37138508      13.92756925       14       1.66599870       0.79065967      -0.97844017
H        5.22449391       3.34253476       6.95654090       15      -0.19586223      -0.24371101      -0.35536370
H        2.35103517       5.47234743       0.92593120       16       0.07488222      -0.03669254       2.92612004
H        1.24171340       4.28189586       7.99724227       17       0.06076874      -0.17125174       1.25112844
H        1.24667159       4.33664954      13.07361181       18      -0.00913513      -0.31979844      -2.09602976
H        2.30310782       5.39989740       5.96636522       19       0.58514965       0.40519845       1.94121194
H        4.23802893       6.55843718       2.27586801       20      -0.87431335      -0.76942134       0.12714133
H       -0.64239069       3.13650360       9.25529974       21      -0.14473478       0.05412688      -0.38882285
H       -0.57340808       3.07325632      11.68995292       22      -0.46209610      -0.01641153       0.54927993
H        4.26498098       6.62497549       4.71051872       23      -0.98756170      -0.86312056      -0.72193408
C        2.52320705       1.48174880       0.85335560       24      -4.37261295      -3.29615164      -0.42489102
C        1.06408703       8.30864082       7.89466067       25       1.97649574       0.05612333      -3.36927414
C        1.13560277       8.25435847      13.16558612       26      -0.57208443      -0.45869946       0.96236908
C        2.48278222       1.46208265       6.09766751       27      -1.33646941      -0.78113592       8.90204239
C        3.42281955       2.11382334       0.10617468       28       0.64905244       0.49271220      -4.52571535
C        0.16788275       7.55700247       7.07191180       29       2.50535893       2.43185949      -2.31602526
C        0.20852171       7.53745947      14.02135747       30       0.73348391       0.96886474      -4.96751213
C        3.35928518       2.09167588       7.01123175       31       2.75496006       1.59704089      -4.98009682
C        4.44735625       2.80322518       0.69775118       32       0.88098764      -0.05118083      -0.97628427
C       -0.82714349       6.93244668       7.69408502       33      -1.41101587      -1.29215932      -1.94235921
C       -0.83642352       6.88759544      13.36462163       34      -1.34363604      -0.69135308       1.96016240
C        4.48276580       2.79263222       6.35760883       35      -2.46563244      -1.26865995       1.87340903
C        4.54659670       2.75385093       2.07472494       36       0.90314031       1.91062427      -0.06595185
C       -0.86851128       6.95219408       9.04426594       37      -3.08658981      -1.68806434       2.07383537
C       -0.88048736       6.89553427      11.99603679       38      -0.59747708      -0.34215733      -3.43510866
C        4.51237403       2.78651754       4.95937321       39       2.48772836       1.38183796       0.18309617
C        3.51583944       2.11557926       2.71956852       40       0.90205622      -0.48072517       5.51664305
C        0.01419021       7.65860901       9.81927332       41       2.03138876      -0.08697192      -1.96429014
C        0.08608938       7.61686156      11.19002985       42      -3.07770538      -2.03480768       2.53507423
C        3.56980943       2.09699472       4.25440728       43      -1.12488854      -0.18804716      -3.04351139
C       -0.56914935       3.46763291       2.81755706       44       1.77955556       0.48884273      -1.04560971
C        4.19657476       6.21564772       9.74340556       45       0.40656108       1.03390312       0.79132283
C        4.23364046       6.25116255      11.16588263       46      -2.26972699      -1.63846517       3.24787855
C       -0.48239209       3.49423717       4.23487116       47      -6.35786152      -3.81312132      -2.26862431
C        1.34893404       4.71791289       2.70729703       48       2.74657154       2.88800716       7.00585842
C        2.29654589       4.90207157       9.80152192       49      -1.96532059      -0.48199847      -0.82029033
C        2.21323950       4.90689433      11.19070550       50       3.41154671       1.88073134       2.51182175
C        1.31885931       4.80974819       4.23606538       51       2.13067532       0.22022569      -0.18144181
C        2.35208747       5.45239519       2.15216772       52       1.67318797       0.15593891      -5.77230453
C        1.23627006       4.20892307       9.13351589       53       0.53921455       1.30777454      -2.88427138
C        1.24559346       4.24720026      11.90980929       54      -2.13550949      -0.51731110       1.50241017
C        2.45277577       5.50320164       4.93921197       55      -4.00549269      -2.54272580      -2.61362886
C        3.40895928       6.00756592       2.79697076       56       1.00531852       1.14562857      -0.78492457
C        0.17490943       3.63126187       9.75452122       57       0.37793288       0.01875722       2.00333428
C        0.21112075       3.60942529      11.19462971       58       0.60860503       0.43142051      -0.12085152
C        3.41120473       6.07895082       4.17797215       59       2.38533020       0.95548159       2.23427534
N        2.55720010       1.40538077       2.17686239       60      -0.58973891       0.17714550       0.05418319
N        1.08992824       8.26713553       9.18893118       61      -1.39456749       0.24912292       1.28434551
N        0.98380252       8.28735953      11.81192665       62       3.48580909       1.94267809       2.35818553
N        2.55916177       1.43478827       4.88432810       63       0.78204381       0.13650827      -7.73324490
N        0.33275364       4.13443940       4.90534657       64       4.93110943       3.68404412       2.68955898
N        3.20763931       5.60179611      11.93890642       65       0.76552236       0.30619624      -2.39952207
N        3.16940186       5.63886197       9.11646981       66       1.36331236      -0.10793183      -1.42031479
N        0.44004168       4.14034494       2.11448238       67      -6.37283134      -4.17825842      -3.51964068
Cl       3.43052467       9.43626275       1.89998096       68      -0.01535381      -0.09552537      -0.19017367
Cl       0.20861546       0.33674674       8.81844055       69      -0.27059293      -0.13634910      -0.07961226
Cl       0.20260385       0.22659638      12.18387412       70      -0.04002564       0.15669820      -0.30733293
Cl       3.44671420       9.43782764       5.25471591       71      -0.03019765      -0.12534417      -0.04946183
Cl       0.12950466       7.91575721       3.50433851       72       0.47187394       0.47748551       0.06843306
Cl       3.45225043       1.75564729      10.49669784       73      -0.12280373      -0.19029704       0.05600867
74
Lattice="6.14830958 0.0 0.0 -2.583005942917936 9.743214490060733 0.0 0.0002198407244109067 -0.00039529365751092473 13.978410462682035" Properties=species:S:1:pos:R:3:spacegroup_kinds:I:1:forces:R:3 spacegroup="P 1" unit_cell=conventional occupancy="_JSON {\"0\": {\"Cu\": 1}, \"1\": {\"Cu\": 1}, \"2\": {\"Cu\": 1}, \"3\": {\"Cu\": 1}, \"4\": {\"H\": 1}, \"5\": {\"H\": 1}, \"6\": {\"H\": 1}, \"7\": {\"H\": 1}, \"8\": {\"H\": 1}, \"9\": {\"H\": 1}, \"10\": {\"H\": 1}, \"11\": {\"H\": 1}, \"12\": {\"H\": 1}, \"13\": {\"H\": 1}, \"14\": {\"H\": 1}, \"15\": {\"H\": 1}, \"16\": {\"H\": 1}, \"17\": {\"H\": 1}, \"18\": {\"H\": 1}, \"19\": {\"H\": 1}, \"20\": {\"H\": 1}, \"21\": {\"H\": 1}, \"22\": {\"H\": 1}, \"23\": {\"H\": 1}, \"24\": {\"C\": 1}, \"25\": {\"C\": 1}, \"26\": {\"C\": 1}, \"27\": {\"C\": 1}, \"28\": {\"C\": 1}, \"29\": {\"C\": 1}, \"30\": {\"C\": 1}, \"31\": {\"C\": 1}, \"32\": {\"C\": 1}, \"33\": {\"C\": 1}, \"34\": {\"C\": 1}, \"35\": {\"C\": 1}, \"36\": {\"C\": 1}, \"37\": {\"C\": 1}, \"38\": {\"C\": 1}, \"39\": {\"C\": 1}, \"40\": {\"C\": 1}, \"41\": {\"C\": 1}, \"42\": {\"C\": 1}, \"43\": {\"C\": 1}, \"44\": {\"C\": 1}, \"45\": {\"C\": 1}, \"46\": {\"C\": 1}, \"47\": {\"C\": 1}, \"48\": {\"C\": 1}, \"49\": {\"C\": 1}, \"50\": {\"C\": 1}, \"51\": {\"C\": 1}, \"52\": {\"C\": 1}, \"53\": {\"C\": 1}, \"54\": {\"C\": 1}, \"55\": {\"C\": 1}, \"56\": {\"C\": 1}, \"57\": {\"C\": 1}, \"58\": {\"C\": 1}, \"59\": {\"C\": 1}, \"60\": {\"N\": 1}, \"61\": {\"N\": 1}, \"62\": {\"N\": 1}, \"63\": {\"N\": 1}, \"64\": {\"N\": 1}, \"65\": {\"N\": 1}, \"66\": {\"N\": 1}, \"67\": {\"N\": 1}, \"68\": {\"Cl\": 1}, \"69\": {\"Cl\": 1}, \"70\": {\"Cl\": 1}, \"71\": {\"Cl\": 1}, \"72\": {\"Cl\": 1}, \"73\": {\"Cl\": 1}}" energy=-497.1466369628906 free_energy=-497.1466369628906 stress="-0.0016349066281691194 0.0005243796040304005 0.0034559741616249084 0.0005243796040304005 -0.011316369287669659 0.003284657606855035 0.0034559741616249084 0.003284657606855035 -0.006453587207943201" pbc="T T T"
Cu       1.37850613       0.32472053       3.53680955        0       0.13869901       0.18566674      -0.03148198
Cu       2.24998136       9.23719765      10.50365191        1       0.61669302       0.45619529       0.39330447
Cu       2.26454345       8.60187761       3.60814090        2      -0.38242936       0.70149648      -0.13496955
Cu       1.34784422       1.13943714      10.50920017        3       0.55509895      -0.80260295       0.04508973
H        1.61073718       0.88558827       0.42038715        4       1.57902408       0.75253588       0.23238243
H        1.96945963       8.81868191       7.39735505        5      -1.41114819      -0.66853637       0.36451799
H        2.04305742       8.82868582      13.67234737        6      -1.74497342      -1.12142944      -0.93364108
H        1.67242466       0.83670803       6.54510324        7       0.85488021       0.90702951      -0.13031980
H        3.31054871       1.93816473      12.94427402        8       0.42987892       0.79164654       1.46784389
H        0.32528090       7.56418852       5.90019712        9      -0.28098148      -0.10434517       2.04275417
H        0.29769525       7.58395317       1.08732457       10       0.32739326      -0.02975298       0.48962066
H        3.33730632       1.99117576       8.03599010       11      -0.42946738      -0.17107931       2.24867773
H        5.17098381       3.30702427       0.12492719       12       0.93875647       0.74347448      -0.49689516
H       -1.54813888       6.35410337       7.10253318       13       0.02995204       0.04695171       0.44355318
H       -1.69684562       6.35682928      13.93024770       14       1.60511637       1.11430204      -0.76744175
H        5.26830269       3.32628416       6.99027316       15      -1.57504690      -1.12547576      -1.10779798
H        2.36817862       5.43394213       0.97368487       16       0.08960872      -0.05625699       2.81814599
H        1.23559648       4.24115554       8.04296888       17       0.29342151      -0.06087158       0.79215038
H        1.22105828       4.28822377      13.07255505       18      -0.08849567      -0.28297082      -1.63613415
H        2.27379738       5.41118089       5.99482001       19       0.92574799       0.61318833       1.14283442
H        4.27195226       6.60004489       2.31588273       20      -1.01769686      -0.91245019      -0.13029483
H       -0.59820729       3.09519470       9.24386680       21       0.44242004       0.65613008      -0.01015343
H       -0.58955824       3.07359145      11.69045692       22       0.11359569       0.24642630       0.00568595
H        4.24880359       6.58210335       4.74132865       23      -0.14330435      -0.04626332      -0.29285645
C        2.52235073       1.43478224       0.86093915       24      -2.78025579      -1.73846912      -2.47239208
C        1.06625475       8.28848580       7.86931328       25       3.07899976       0.75364518      -0.71273726
C        1.14837046       8.23238137      13.20437858       26       1.16144037       0.60008347      -0.80830687
C        2.50656878       1.46894743       6.10170150       27      -2.39350104      -1.96611524       7.26315165
C        3.43158120       2.10829713       0.09730335       28       0.21942303      -0.10036124      -2.05563736
C        0.19495792       7.52043418       7.06213684       29       2.36915112       2.47376823      -2.00967312
C        0.25789053       7.51063473      13.99181465       30       0.20373273       1.15676033       0.28824428
C        3.39435873       2.09806121       7.01285668       31       0.50949204       0.30652747      -3.56132841
C        4.46600324       2.81563527       0.73650466       32      -0.71106946      -1.25784290      -2.19454002
C       -0.81656707       6.91684121       7.70106685       33      -1.54324722      -1.63122857      -2.98023176
C       -0.83730322       6.93178047      13.39344158       34      -1.49489093      -1.84986353       0.08306345
C        4.43730664       2.74886184       6.39010987       35       2.10648465       1.33769834       0.63651013
C        4.58358004       2.71168827       2.07992057       36       0.10979205       2.02567148       1.80874729
C       -0.85879736       6.91772490       9.02857060       37      -2.57463861      -1.03421068       3.47592425
C       -0.84576470       6.87684220      12.01844239       38      -1.88787687      -0.71937990      -4.39497852
C        4.56065564       2.76352782       4.95898472       39       0.08210912       0.47405356       1.15160608
C        3.50340011       2.06760589       2.72229369       40       4.44518471       1.83336806       5.65483284
C        0.05945531       7.63908601       9.79460334       41       1.41526890      -0.30683681      -1.93216562
C        0.12751925       7.57474008      11.14572846       42      -2.96666336      -1.95784676       5.45279551
C        3.58935446       2.08870401       4.25475586       43      -0.97619748      -0.54778057      -3.16532660
C       -0.53988352       3.47747600       2.85931874       44       0.46449432      -0.64925510      -2.42379451
C        4.17610399       6.19460913       9.74534040       45       0.66071028       0.79819632       0.87470776
C        4.19184761       6.20641169      11.18451185       46      -0.44275168      -0.30204758       3.20395803
C       -0.51195404       3.45905589       4.25738227       47      -1.59754562      -0.72969818      -0.42655236
C        1.39725718       4.67228293       2.75616115       48       0.89673817       1.85141635       5.37400198
C        2.34494614       4.85601312       9.78774663       49      -2.65997672      -0.72275615       1.18715775
C        2.24939226       4.88306443      11.19649755       50       1.21143627       0.61262250       3.40999484
C        1.36773538       4.76638211       4.28310499       51       1.34227312       0.07782663      -1.07923603
C        2.39352246       5.41673351       2.19747510       52       0.94799179      -0.17270081      -6.54598427
C        1.27351272       4.18900006       9.16488775       53       0.30416623       0.99787307      -3.78504419
C        1.21338917       4.20044950      11.93024839       54       0.63071328       1.03925169       0.11694977
C        2.48935712       5.51806906       4.95462619       55      -5.14336681      -3.50608540      -0.63501292
C        3.43301653       6.01518665       2.78519282       56       1.56576228       1.55305791       1.57854056
C        0.20727321       3.64997888       9.76084074       57      -1.00943661      -1.22396147       1.56695533
C        0.23699813       3.58652190      11.18273858       58      -1.15402746      -0.29543701       0.83622175
C        3.41016388       6.10452813       4.21133056       59       2.73870707       0.76762980      -0.15592648
N        2.59345329       1.39836449       2.16131699       60      -2.85615349      -1.61686313       0.67848456
N        1.13444518       8.29814567       9.23787439       61      -2.18331957      -0.59138775      -2.55503082