97
Lattice="9.14412447 0.0 0.0 -3.747425703957883 9.598313452265955 0.0 -1.5058436020849904 -0.9879271821378569 12.964486072461852" Properties=species:S:1:pos:R:3:spacegroup_kinds:I:1:forces:R:3 spacegroup="P 1" unit_cell=conventional occupancy="_JSON {\"0\": {\"Cu\": 1}, \"1\": {\"Cu\": 1}, \"2\": {\"Cu\": 1}, \"3\": {\"H\": 1}, \"4\": {\"H\": 1}, \"5\": {\"H\": 1}, \"6\": {\"H\": 1}, \"7\": {\"H\": 1}, \"8\": {\"H\": 1}, \"9\": {\"H\": 1}, \"10\": {\"H\": 1}, \"11\": {\"H\": 1}, \"12\": {\"H\": 1}, \"13\": {\"H\": 1}, \"14\": {\"H\": 1}, \"15\": {\"H\": 1}, \"16\": {\"H\": 1}, \"17\": {\"H\": 1}, \"18\": {\"H\": 1}, \"19\": {\"H\": 1}, \"20\": {\"H\": 1}, \"21\": {\"H\": 1}, \"22\": {\"H\": 1}, \"23\": {\"H\": 1}, \"24\": {\"H\": 1}, \"25\": {\"C\": 1}, \"26\": {\"C\": 1}, \"27\": {\"C\": 1}, \"28\": {\"C\": 1}, \"29\": {\"C\": 1}, \"30\": {\"C\": 1}, \"31\": {\"C\": 1}, \"32\": {\"C\": 1}, \"33\": {\"C\": 1}, \"34\": {\"C\": 1}, \"35\": {\"C\": 1}, \"36\": {\"C\": 1}, \"37\": {\"C\": 1}, \"38\": {\"C\": 1}, \"39\": {\"C\": 1}, \"40\": {\"C\": 1}, \"41\": {\"C\": 1}, \"42\": {\"C\": 1}, \"43\": {\"C\": 1}, \"44\": {\"C\": 1}, \"45\": {\"C\": 1}, \"46\": {\"C\": 1}, \"47\": {\"C\": 1}, \"48\": {\"C\": 1}, \"49\": {\"C\": 1}, \"50\": {\"C\": 1}, \"51\": {\"C\": 1}, \"52\": {\"C\": 1}, \"53\": {\"C\": 1}, \"54\": {\"C\": 1}, \"55\": {\"C\": 1}, \"56\": {\"C\": 1}, \"57\": {\"C\": 1}, \"58\": {\"C\": 1}, \"59\": {\"C\": 1}, \"60\": {\"C\": 1}, \"61\": {\"C\": 1}, \"62\": {\"C\": 1}, \"63\": {\"C\": 1}, \"64\": {\"C\": 1}, \"65\": {\"C\": 1}, \"66\": {\"C\": 1}, \"67\": {\"C\": 1}, \"68\": {\"C\": 1}, \"69\": {\"C\": 1}, \"70\": {\"C\": 1}, \"71\": {\"C\": 1}, \"72\": {\"C\": 1}, \"73\": {\"N\": 1}, \"74\": {\"N\": 1}, \"75\": {\"N\": 1}, \"76\": {\"N\": 1}, \"77\": {\"N\": 1}, \"78\": {\"N\": 1}, \"79\": {\"Cl\": 1}, \"80\": {\"Cl\": 1}, \"81\": {\"Cl\": 1}, \"82\": {\"Cl\": 1}, \"83\": {\"Cl\": 1}, \"84\": {\"Cl\": 1}, \"85\": {\"O\": 1}, \"86\": {\"O\": 1}, \"87\": {\"O\": 1}, \"88\": {\"O\": 1}, \"89\": {\"O\": 1}, \"90\": {\"O\": 1}, \"91\": {\"O\": 1}, \"92\": {\"O\": 1}, \"93\": {\"O\": 1}, \"94\": {\"O\": 1}, \"95\": {\"O\": 1}, \"96\": {\"O\": 1}}" energy=-668.1419677734375 free_energy=-668.1419677734375 stress="-0.0067999050952494144 0.0030807771254330873 -0.0033297843765467405 0.0030807771254330873 -0.0010987934656441212 0.0040746633894741535 -0.0033297843765467405 0.0040746633894741535 -0.0066740307956933975" pbc="T T T"
Cu       5.39595052       9.59895303       0.00038900        0      -0.06872402       0.05122175      -0.00051621
Cu       2.57295687       6.30831238      10.26144857        1       0.18930462      -0.27611947       0.25211018
Cu       1.26339525       2.25955596       2.69097519        2       0.29445079       0.28202283      -0.16227634
H        0.30772951       7.56025154      12.00006617        3      -0.05893906      -0.07448716      -0.47554946
H        3.52997855       1.04298207       0.95908635        4       0.08083178       0.06311666      -0.23044954
H       -1.92582148       8.52332166      11.51560217        5      -0.56127232       0.26280406       0.83318931
H        5.79433182       0.09917636       1.46980902        6       0.91178405      -0.43627119      -1.22698772
H       -2.62009438       8.82900658       9.13089528        7      -0.30253315       0.07262925      -0.02538617
H        6.51667413      -0.17936433       3.82348200        8       0.79612160      -0.38675281       0.08296234
H       -1.10284419       7.99485994       7.30186079        9       0.29844850       0.05165769       0.77075756
H        4.97117285       0.62905134       5.68309423       10      -0.13878568       0.05222545      -0.10003056
H        0.36104629       6.93239019       5.89557528       11      -1.47281289       0.33683440      -0.81156105
H        3.54151596       1.65119812       7.08555054       12      -0.43114042       0.14549871      -0.19160846
H        2.26611255       6.09344952       4.58244980       13      -0.09371880      -0.17929351      -0.75072908
H        1.61406011       2.55025240       8.43477909       14       0.03497014      -0.17102090      -1.41925764
H        4.42505064       5.54209572       5.68274424       15      -0.06119020       0.00918473       0.05399936
H       -0.49580667       3.08624631       7.25074044       16      -0.65456736       0.22054492       0.35433513
H       -2.85206686       5.31747926       7.05454570       17       0.03505792      -0.00307544      -0.88752228
H        6.73951021       3.31432075       5.91969821       18       0.45943940       0.01132859      -0.67977005
H       -1.19394424       4.50894339       8.70536950       19       0.31941292       0.10294542      -0.02356652
H        5.07098533       4.07617231       4.20934787       20       0.50228137      -0.22496778       0.08309328
H       -1.81058739       4.50331499      11.13030247       21       0.73318148      -0.38216224       0.50076282
H        5.72917688       4.11654317       1.79540569       22       0.05756820       0.04352821       0.67634207
H        5.09509340       5.32697206      11.82854789       23      -0.14543125       0.13726090       0.48471832
H       -1.17127384       3.28403518       1.14969209       24      -0.22756383       0.05956291      -0.10976734
C        5.87788973       0.51595193      11.47530704       25       2.45998240      -2.34219646       0.93717170
C       -1.99625598       8.13776980       1.46300568       26      -0.27805242      -0.27802515       0.97940332
C        6.86682164      -0.07909354      10.50406268       27      -0.55647755      -0.16861162       1.85721993
C       -2.96647060       8.68191714       2.47429625       28       1.00425410      -0.15958944      -1.43719685
C        6.83707183       0.26910211       9.18101422       29      -0.31150475       0.86175752      -1.98034871
C       -2.94610770       8.34223161       3.80334760       30       1.08708620      -1.22393107       0.75661588
C        5.86696304       1.19858416       8.67789990       31      -1.00490081       0.86768734       0.09006739
C       -1.97149761       7.38144891       4.29226445       32       0.29401761       1.06800008      -3.49671888
C        4.79030247       1.76877747       9.74284072       33      -0.58200812       1.04184163      -2.95925665
C       -0.90558552       6.83837777       3.27747730       34       0.52860212      -0.66127473      -0.56044000
C        4.91454445       1.36189963      11.07368400       35      -2.03437471       1.64085078       0.98673743
C       -1.01451938       7.23945641       1.87017091       36       0.49710006      -0.48141736       0.51853865
C        2.57200293       4.53677989       1.43382865       37      -0.69811904      -1.46621275      -2.04157257
C        1.26778021       4.08420194      11.54866405       38       1.64934993       1.48444939       2.12638736
C        1.93467598       5.00628586      12.60610006       39      -1.27535594      -1.19057941      -0.91659552
C        1.95547657       3.58582819       0.33449014       40       0.16307278       0.33811492       3.65278912
C        3.28813286       5.67402115       0.99140755       41       0.27012736       0.38565508       0.89121020
C        0.60889119       2.93390519      11.99461263       42      -0.76783824      -0.78143394      -2.14377236
C       -0.03528459       7.67825451      10.95703908       43       0.16955154       0.15665899       1.35863900
C        3.90306493       0.92330944       1.96864857       44      -0.02184331       0.03891804       0.18457755
C       -1.27483079       8.25398747      10.72430525       45       0.39503613      -0.40762478      -1.58850455
C        5.14373155       0.36925356       2.24548842       46       0.13433760      -0.07279740       1.56405473
C       -1.66646206       8.39160961       9.38132560       47       0.47612062      -0.10304613       0.39700374
C        5.55975177       0.20538915       3.57002973       48      -2.57564068       1.66471577       0.95229644
C       -0.79924291       7.96463362       8.37661739       49      -0.10105309      -0.13332638      -1.05187142
C        4.66002456       0.69382941       4.63698322       50       2.68192863      -1.69761086      -1.35642743
C        0.44096437       7.39590086       8.71350820       51       0.45634907      -0.49265054      -1.30216956
C        3.45726085       1.21380926       4.27975269       52      -0.67727149       0.58664364      -1.16436076
C        1.46618113       6.85550951       7.73628573       53      -2.30623245       1.08708811      -0.20739722
C        2.47639395       1.70614630       5.23595525       54      -1.42112505       0.61660957      -2.42992020
C        1.28036518       6.72388916       6.34294547       55       1.32252884      -0.30658653       2.18912196
C        2.58568216       1.88170320       6.57393291       56       1.44691718      -0.25318316       2.22765732
C        2.35457370       6.20612755       5.64308957       57       0.67310715       0.16819420      -0.58864969
C        1.53091561       2.40068339       7.30964666       58      -0.63866055       0.11498889       1.42568851
C        3.56515500       5.90103383       6.24677006       59      -0.05728593      -0.14135039       1.59391773
C        0.32121814       2.70931496       6.67526643       60       0.62395775       0.27163380       0.79173094
C        3.61672705       6.01779816       7.68572505       61       2.99208260      -1.26358771      -2.57335806
C        0.23430411       2.62608906       5.30946677       62       1.76863647      -1.11013925      -1.52388048
C        4.77417181       5.59797753       8.51841819       63      -1.82950211       0.97174215       1.39206135
C       -0.85780674       3.00300841       4.44442420       64       0.98691213      -0.39750609      -1.81363130
C       -3.13126493       5.23601632       8.07879865       65       0.86787862      -0.27552673       1.05863881
C        7.04550014       3.38235658       4.84664284       66      -1.63532674       0.24612917       2.23702812
C       -2.16994006       4.83962901       9.04307210       67      -0.19026029      -0.28581145      -0.95043045
C        6.10317183       3.78882570       3.92768222       68      -1.35674179       0.54906911       0.20301799
C       -2.48861520       4.79288938      10.36623613       69      -2.35606861       1.11717820       0.87642217
C        6.43250520       3.82684558       2.59955767       70      -1.16395867       0.42158714      -1.84999418
C        5.35286304       5.28389805      10.78792093       71       2.06733418      -0.83755827      -0.90964514
C       -1.49927687       3.37383540       2.18076327       72       1.84008789      -0.87965310       0.61599815
N        0.80292490       7.27010347       9.99666031       73      -0.12025502       0.14933132       0.58158809
N        3.10503465       1.34379380       2.93587373       74      -0.55861861      -0.08353546       1.13079166
N        2.61083235       6.51770763       8.31448220       75      -1.28748584       0.47134900       1.39862895
N        1.32707373       2.10598396       4.61170679       76      -1.09911299       0.37281626       1.36070633
N        4.47795342       5.68207224       9.89572952       77      -0.28573129      -0.12209745      -1.50433493
N       -0.59670388       2.93627237       3.08838084       78       0.19315395       0.15667304       0.37829232
Cl       3.77742926       2.04665330      12.24711841       79       0.83074087      -0.44420987      -0.76803964
Cl       0.10485624       6.57668209       0.70782702       80      -0.68298835       0.30584547       0.73799461
Cl       8.00652253      -0.26404605       8.03018132       81       0.00538392      -0.14277425       0.32786340
Cl      -4.08978180       8.89708337       4.90892296       82      -0.47096634       0.25455457       0.27625269
Cl       3.94393090       6.69933388       2.20667610       83       0.00545120      -0.14981623      -0.27401042
Cl      -0.05687395       1.89523915      10.77778131       84       0.10426798       0.23452596       0.19960710
O        6.01790308       0.10047915      12.72774276       85      -0.06485049       0.31313127      -0.37477762
O       -2.12888287       8.51424230       0.23583656       86      -0.24711615       0.29989433      -0.59870946
O        3.94469344       8.64181573      10.99430011       87       0.41812661      -0.10182656       0.08371237
O       -0.02693682      -0.05458423       1.99504636       88      -1.48729742       1.17030370      -0.66060621
O        3.91518967       2.56077613       9.27264329       89       1.03119195      -0.94021642       1.06926918
O       -0.04480623       6.01878089       3.68727698       90      -0.66054314       0.72055048      -0.49301893
O        5.77236121       1.62258181       7.48714971       91       0.45743537      -0.67538726       1.11795676
O       -1.89289494       6.98418113       5.41976010       92      -0.19714633      -1.00497913       3.62002420
O        2.51522523       6.06613773      12.19199058       93       0.55264640       0.55546594       0.00109714
O        1.32489674       2.52654487       0.78599236       94       0.29540825       0.56706911      -0.92417431
O        2.44846778       4.19072357       2.62171016       95       0.15407270       0.20746693       0.99417132
O        1.44117986       4.42430623      10.36809306       96      -0.39869875      -0.17063212      -1.69543183
97
Lattice="9.14412447 0.0 0.0 -3.747425703957883 9.598313452265955 0.0 -1.5058436020849904 -0.9879271821378569 12.964486072461852" Properties=species:S:1:pos:R:3:spacegroup_kinds:I:1:forces:R:3 spacegroup="P 1" unit_cell=conventional occupancy="_JSON {\"0\": {\"Cu\": 1}, \"1\": {\"Cu\": 1}, \"2\": {\"Cu\": 1}, \"3\": {\"H\": 1}, \"4\": {\"H\": 1}, \"5\": {\"H\": 1}, \"6\": {\"H\": 1}, \"7\": {\"H\": 1}, \"8\": {\"H\": 1}, \"9\": {\"H\": 1}, \"10\": {\"H\": 1}, \"11\": {\"H\": 1}, \"12\": {\"H\": 1}, \"13\": {\"H\": 1}, \"14\": {\"H\": 1}, \"15\": {\"H\": 1}, \"16\": {\"H\": 1}, \"17\": {\"H\": 1}, \"18\": {\"H\": 1}, \"19\": {\"H\": 1}, \"20\": {\"H\": 1}, \"21\": {\"H\": 1}, \"22\": {\"H\": 1}, \"23\": {\"H\": 1}, \"24\": {\"H\": 1}, \"25\": {\"C\": 1}, \"26\": {\"C\": 1}, \"27\": {\"C\": 1}, \"28\": {\"C\": 1}, \"29\": {\"C\": 1}, \"30\": {\"C\": 1}, \"31\": {\"C\": 1}, \"32\": {\"C\": 1}, \"33\": {\"C\": 1}, \"34\": {\"C\": 1}, \"35\": {\"C\": 1}, \"36\": {\"C\": 1}, \"37\": {\"C\": 1}, \"38\": {\"C\": 1}, \"39\": {\"C\": 1}, \"40\": {\"C\": 1}, \"41\": {\"C\": 1}, \"42\": {\"C\": 1}, \"43\": {\"C\": 1}, \"44\": {\"C\": 1}, \"45\": {\"C\": 1}, \"46\": {\"C\": 1}, \"47\": {\"C\": 1}, \"48\": {\"C\": 1}, \"49\": {\"C\": 1}, \"50\": {\"C\": 1}, \"51\": {\"C\": 1}, \"52\": {\"C\": 1}, \"53\": {\"C\": 1}, \"54\": {\"C\": 1}, \"55\": {\"C\": 1}, \"56\": {\"C\": 1}, \"57\": {\"C\": 1}, \"58\": {\"C\": 1}, \"59\": {\"C\": 1}, \"60\": {\"C\": 1}, \"61\": {\"C\": 1}, \"62\": {\"C\": 1}, \"63\": {\"C\": 1}, \"64\": {\"C\": 1}, \"65\": {\"C\": 1}, \"66\": {\"C\": 1}, \"67\": {\"C\": 1}, \"68\": {\"C\": 1}, \"69\": {\"C\": 1}, \"70\": {\"C\": 1}, \"71\": {\"C\": 1}, \"72\": {\"C\": 1}, \"73\": {\"N\": 1}, \"74\": {\"N\": 1}, \"75\": {\"N\": 1}, \"76\": {\"N\": 1}, \"77\": {\"N\": 1}, \"78\": {\"N\": 1}, \"79\": {\"Cl\": 1}, \"80\": {\"Cl\": 1}, \"81\": {\"Cl\": 1}, \"82\": {\"Cl\": 1}, \"83\": {\"Cl\": 1}, \"84\": {\"Cl\": 1}, \"85\": {\"O\": 1}, \"86\": {\"O\": 1}, \"87\": {\"O\": 1}, \"88\": {\"O\": 1}, \"89\": {\"O\": 1}, \"90\": {\"O\": 1}, \"91\": {\"O\": 1}, \"92\": {\"O\": 1}, \"93\": {\"O\": 1}, \"94\": {\"O\": 1}, \"95\": {\"O\": 1}, \"96\": {\"O\": 1}}" energy=-666.36572265625 free_energy=-666.36572265625 stress="-0.0113335270434618 0.006112860050052404 -0.0080245491117239 0.006112860050052404 -0.0015830559423193336 0.004674848169088364 -0.0080245491117239 0.004674848169088364 -0.019182665273547173" pbc="T T T"
Cu       5.39792378       9.59701781       0.02713108        0      -0.19135739       0.15550248      -0.51636404
Cu       2.59073154       6.33085310      10.23752438        1      -0.17316748      -0.28584039       0.89249867
Cu       1.24589344       2.28354703       2.68075880        2       0.48502082       0.13728920       0.16675879
H        0.31542881       7.53873539      11.97665703        3      -0.26413989      -0.08263670      -0.74865371
H        3.55445395       1.02130156       0.95732986        4      -0.04355974       0.24699213      -0.03277935
H       -1.94807421       8.54821358      11.51685397        5       0.56154501      -0.29046634      -0.46718538
H        5.82284596       0.11571568       1.45187356        6      -0.38789165      -0.00189485       0.07698002
H       -2.62419606       8.83218283       9.10218448        7       0.64418995      -0.34839940       0.35872522
H        6.50843261      -0.15176334       3.85068098        8       2.14015341      -0.93845832       0.37046438
H       -1.07486474       8.01381461       7.30353551        9      -0.24679747       0.06647064      -0.33509836
H        4.94940094       0.62997530       5.67361430       10      -0.18529578       0.06029663       0.24158090
H        0.36865501       6.94304598       5.87167803       11      -0.89224988       0.28392410      -0.44723096
H        3.54246633       1.64252184       7.08352511       12      -0.71495199       0.18161163      -0.17475376
H        2.25996413       6.09085403       4.59253779       13      -0.01013386      -0.18515873      -0.30780217
H        1.63545452       2.52999380       8.44115584       14      -0.11201976      -0.12748405      -1.45855224
H        4.45076951       5.56808076       5.67498736       15      -0.50327015      -0.02395088       0.29084024
H       -0.52347396       3.06125918       7.24511709       16       0.39993310      -0.23832163      -0.27949601
H       -2.88102032       5.30201270       7.03272806       17       0.23917876      -0.09815732      -0.53133249
H        6.76349942       3.30749035       5.93790196       18       0.42879066       0.17494301      -0.57699275
H       -1.20948761       4.48432600       8.70644615       19       0.52399957       0.15911607       0.05473981
H        5.05393876       4.10103792       4.21453557       20       0.36884636      -0.21447393       0.18047009
H       -1.82403138       4.51170408      11.13919883       21       1.53314853      -0.68048942       1.40050638
H        5.75182977       4.09371449       1.81843821       22      -0.68185937       0.27276838       0.03191690
H        5.07392714       5.34654423      11.80476664       23      -0.20963337       0.01023696       1.05259418
H       -1.18222058       3.29210703       1.12419286       24      -0.52603728       0.27890399       1.11143136
C        5.90253511       0.52343883      11.47775484       25       1.82753038      -2.07902431       0.25901866
C       -2.01099275       8.13607112       1.46422081       26       0.07045509      -0.12582289      -0.04313803
C        6.84542567      -0.06227952      10.48187831       27       0.96095544      -1.44565344       2.76405454
C       -2.97187693       8.70488379       2.47007753       28       1.51559711      -1.33608627      -0.32921666
C        6.83878801       0.24401279       9.15839093       29      -1.21182799       1.83371627      -1.53036046
C       -2.96576580       8.33224191       3.81468918       30       1.21804440      -0.72526890      -0.45461822
C        5.84499364       1.22399652       8.70706545       31       0.13888064      -0.40425396      -0.23227271
C       -1.98063271       7.37508792       4.31834231       32      -0.20121527       3.03980541      -8.32184601
C        4.76887396       1.77952777       9.75355897       33       0.88513631      -0.08216062      -2.24592447
C       -0.91381165       6.86695430       3.28047903       34       1.24392259      -1.57700872      -0.90488160
C        4.93182344       1.34608516      11.08308491       35      -3.04911709       2.59996748       0.63229406
C       -1.01442970       7.23878606       1.84605369       36       0.20754081      -0.36935231       1.40607297
C        2.59201451       4.56482021       1.43088817       37      -1.35699201      -2.52290463      -2.48693633
C        1.29612249       4.11198353      11.55614635       38       0.44144875      -0.32916489       3.40089464
C        1.91186419       4.98566595      12.61863552       39       0.12868530       1.06662726      -2.05662251
C        1.96463096       3.60182717       0.33599964       40      -0.30181843      -0.61184561       4.12830448
C        3.30987417       5.67824075       1.00467002       41      -0.05597258       0.16474272      -0.08138604
C        0.60219072       2.92102751      12.00471701       42       0.19954081       0.80862564      -2.69933105
C       -0.05602292       7.65028426      10.92975341       43       0.61237389       0.31444296       2.85947514
C        3.89559065       0.94446886       1.98692882       44       0.60412425      -0.48965186      -1.05719399
C       -1.26086291       8.23222421      10.70059959       45      -1.83908546       0.55879366      -0.00282059
C        5.12000168       0.37163909       2.25904843       46       2.51956797      -0.95329118       0.91010106
C       -1.64570470       8.36956328       9.36619041       47      -1.47869039       0.75669909      -0.07493860
C        5.57443965       0.18538729       3.58850395       48      -4.89236879       2.73917937      -0.03428992
C       -0.82719998       7.94741614       8.34969489       49       2.14626360      -0.69797492      -0.16951187
C        4.63642565       0.69644949       4.63776703       50       4.94494629      -2.74381399      -1.10451508
C        0.46302900       7.39875753       8.69226896       51      -1.35205770       0.00463511      -1.41244841
C        3.48438016       1.21334393       4.25989574       52      -3.24811101       1.67969537      -0.30187315
C        1.47868612       6.85290388       7.72043731       53      -3.24085617       1.80862451       0.88612384
C        2.46786885       1.68415473       5.23623695       54      -1.66513586       0.95780861      -2.03928852
C        1.29142920       6.75224595       6.35568261       55       1.13875854      -0.81319606       0.56524944
C        2.55874359       1.86729842       6.60122401       56       3.60431600      -1.23364651       0.15239009
C        2.36702225       6.19581659       5.66580292       57      -0.31834862       0.43870068      -1.49243510
C        1.54903958       2.38013974       7.31491005       58      -2.50207424       0.79054308       1.98611093
C        3.56024318       5.87382601       6.25222119       59       1.07922971       0.15944543       1.98969817
C        0.33139687       2.68278849       6.64717481       60      -0.47236434       1.18470311       3.40157032
C        3.64350159       6.03950776       7.69254908       61       1.13583398      -1.06131768      -1.84276664
C        0.22462043       2.65499753       5.31108374       62       2.16302013      -2.09936428      -2.15649009
C        4.79211010       5.59276467       8.50785233       63      -2.15667009       1.30061483       1.94159245
C       -0.87320649       2.98047539       4.45458864       64       1.05969393       0.12706101      -2.30213952
C       -3.11794889       5.22904259       8.07542542       65       0.63997477      -0.16187128       1.18967617
C        7.06664960       3.40411773       4.86950927       66      -3.22150469       0.49319160       1.44371319
C       -2.15969828       4.85377698       9.06927391       67      -0.05779625      -0.47884047      -1.57214594
C        6.07876565       3.80854321       3.93418448       68      -0.22040461       0.00209648       1.44179869
C       -2.46154293       4.81316728      10.38659756       69      -3.95318556       1.35230494      -0.13584562
C        6.41014509       3.81474283       2.62402285       70      -0.18068083       0.47292298      -1.90854192
C        5.32408475       5.26888655      10.77690398       71       4.18822622      -1.20549369       0.59157634
C       -1.49524204       3.40023752       2.20263822       72       1.30199862      -1.18154383      -0.89212418
N        0.77373054       7.29579545       9.98118687       73       1.51916111      -0.80131781      -0.49216408
N        3.12906178       1.37312928       2.94026563       74      -1.64781809       0.31277743       1.28421402
N        2.58226594       6.53226757       8.33548194       75       2.05303478      -0.74782705       0.16828600
N        1.30142964       2.08744781       4.62809757       76       0.04440912       0.27924410       0.54160666
N        4.48720435       5.67704701       9.92223562       77      -1.59232521       0.45004439      -3.96140051
N       -0.62192885       2.92740983       3.08280586       78       0.86423844       0.01508206       1.06158209
Cl       3.76936717       2.04575008      12.27529610       79       1.15043247      -0.65574658      -1.02726722
Cl       0.09567764       6.55781129       0.69677872       80      -0.74370289       0.36615095       0.78390235
Cl       8.02216414      -0.25278500       8.03496613       81      -0.00137485      -0.19227403       0.10279796
Cl      -4.08964193       8.92669047       4.89935779       82      -0.68005717       0.24432021       0.52795857
Cl       3.93421857       6.67241377       2.18040385       83       0.65698838       0.83598256       0.68886781
Cl      -0.04165532       1.91137602      10.80417636       84      -0.18081596      -0.20164071      -0.31908253
O        6.00690102       0.10732834      12.70826358       85       0.42433137      -0.11851698       0.61837983
O       -2.13763366       8.50602534       0.21464966       86      -0.32359374       0.13537782       0.30724230
O        3.94362461       8.65005163      11.00995696       87      -0.19497800       0.50418985      -0.42523611
O       -0.03270977      -0.05565941       1.98542995       88      -1.92553532       1.67554331      -0.66649890
O        3.93855448       2.55274011       9.25167030       89      -0.39921486       0.18126592       0.91017866
O       -0.06613338       6.01462017       3.69786228       90      -1.08677554       1.37081909      -0.78443986
O        5.76568196       1.61656458       7.51519572       91       0.22990367      -0.23602641       0.68198264
O       -1.90260936       6.98261683       5.39176571       92       0.12340842      -2.81262064       8.46839905
O        2.49090988       6.09111051      12.16320310       93      -0.17257139      -0.82360071       0.94771409
O        1.32870520       2.50252676       0.78972016       94       0.85033256       1.67006111      -1.13266170
O        2.45315170       4.19001789       2.59495255       95       0.14580393       0.11654246       2.04508901
O        1.46626583       4.44465179      10.39233247       96      -0.29550967      -0.00654662      -2.74652481
97
Lattice="9.14412447 0.0 0.0 -3.747425703957883 9.598313452265955 0.0 -1.5058436020849904 -0.9879271821378569 12.964486072461852" Properties=species:S:1:pos:R:3:spacegroup_kinds:I:1:forces:R:3 spacegroup="P 1" unit_cell=conventional occupancy="_JSON {\"0\": {\"Cu\": 1}, \"1\": {\"Cu\": 1}, \"2\": {\"Cu\": 1}, \"3\": {\"H\": 1}, \"4\": {\"H\": 1}, \"5\": {\"H\": 1}, \"6\": {\"H\": 1}, \"7\": {\"H\": 1}, \"8\": {\"H\": 1}, \"9\": {\"H\": 1}, \"10\": {\"H\": 1}, \"11\": {\"H\": 1}, \"12\": {\"H\": 1}, \"13\": {\"H\": 1}, \"14\": {\"H\": 1}, \"15\": {\"H\": 1}, \"16\": {\"H\": 1}, \"17\": {\"H\": 1}, \"18\": {\"H\": 1}, \"19\": {\"H\": 1}, \"20\": {\"H\": 1}, \"21\": {\"H\": 1}, \"22\": {\"H\": 1}, \"23\": {\"H\": 1}, \"24\": {\"H\": 1}, \"25\": {\"C\": 1}, \"26\": {\"C\": 1}, \"27\": {\"C\": 1}, \"28\": {\"C\": 1}, \"29\": {\"C\": 1}, \"30\": {\"C\": 1}, \"31\": {\"C\": 1}, \"32\": {\"C\": 1}, \"33\": {\"C\": 1}, \"34\": {\"C\": 1}, \"35\": {\"C\": 1}, \"36\": {\"C\": 1}, \"37\": {\"C\": 1}, \"38\": {\"C\": 1}, \"39\": {\"C\": 1}, \"40\": {\"C\": 1}, \"41\": {\"C\": 1}, \"42\": {\"C\": 1}, \"43\": {\"C\": 1}, \"44\": {\"C\": 1}, \"45\": {\"C\": 1}, \"46\": {\"C\": 1}, \"47\": {\"C\": 1}, \"48\": {\"C\": 1}, \"49\": {\"C\": 1}, \"50\": {\"C\": 1}, \"51\": {\"C\": 1}, \"52\": {\"C\": 1}, \"53\": {\"C\": 1}, \"54\": {\"C\": 1}, \"55\": {\"C\": 1}, \"56\": {\"C\": 1}, \"57\": {\"C\": 1}, \"58\": {\"C\": 1}, \"59\": {\"C\": 1}, \"60\": {\"C\": 1}, \"61\": {\"C\": 1}, \"62\": {\"C\": 1}, \"63\": {\"C\": 1}, \"64\": {\"C\": 1}, \"65\": {\"C\": 1}, \"66\": {\"C\": 1}, \"67\": {\"C\": 1}, \"68\": {\"C\": 1}, \"69\": {\"C\": 1}, \"70\": {\"C\": 1}, \"71\": {\"C\": 1}, \"72\": {\"C\": 1}, \"73\": {\"N\": 1}, \"74\": {\"N\": 1}, \"75\": {\"N\": 1}, \"76\": {\"N\": 1}, \"77\": {\"N\": 1}, \"78\": {\"N\": 1}, \"79\": {\"Cl\": 1}, \"80\": {\"Cl\": 1}, \"81\": {\"Cl\": 1}, \"82\": {\"Cl\": 1}, \"83\": {\"Cl\": 1}, \"84\": {\"Cl\": 1}, \"85\": {\"O\": 1}, \"86\": {\"O\": 1}, \"87\": {\"O\": 1}, \"88\": {\"O\": 1}, \"89\": {\"O\": 1}, \"90\": {\"O\": 1}, \"91\": {\"O\": 1}, \"92\": {\"O\": 1}, \"93\": {\"O\": 1}, \"94\": {\"O\": 1}, \"95\": {\"O\": 1}, \"96\": {\"O\": 1}}" energy=-665.1773681640625 free_energy=-665.1773681640625 stress="-0.010654905810952187 0.0061058467254042625 -0.012508958578109741 0.0061058467254042625 -0.0030569254886358976 0.0069357831962406635 -0.012508958578109741 0.0069357831962406635 -0.019535865634679794" pbc="T T T"
Cu       5.37765271       9.56787270       0.03861910        0      -0.18296027       0.29907244      -0.57542831
Cu       2.60575645       6.35954846      10.23766693        1      -0.30139351      -0.46046776       0.95494694
Cu       1.24282491       2.30249063       2.66067725        2       0.58670598      -0.01493251       0.64434344
H        0.33890596       7.53701411      11.95901556        3      -0.29214182      -0.18365479      -0.25300318