95
Lattice="6.75899941 0.0 0.0 0.3387472421939897 7.735322619448597 0.0 1.2869015773311978 3.1719074352659016 16.511863769341254" Properties=species:S:1:pos:R:3:spacegroup_kinds:I:1:forces:R:3 spacegroup="P 1" unit_cell=conventional occupancy="_JSON {\"0\": {\"Cd\": 1}, \"1\": {\"H\": 1}, \"2\": {\"H\": 1}, \"3\": {\"H\": 1}, \"4\": {\"H\": 1}, \"5\": {\"H\": 1}, \"6\": {\"H\": 1}, \"7\": {\"H\": 1}, \"8\": {\"H\": 1}, \"9\": {\"H\": 1}, \"10\": {\"H\": 1}, \"11\": {\"H\": 1}, \"12\": {\"H\": 1}, \"13\": {\"H\": 1}, \"14\": {\"H\": 1}, \"15\": {\"H\": 1}, \"16\": {\"H\": 1}, \"17\": {\"H\": 1}, \"18\": {\"H\": 1}, \"19\": {\"H\": 1}, \"20\": {\"H\": 1}, \"21\": {\"H\": 1}, \"22\": {\"H\": 1}, \"23\": {\"H\": 1}, \"24\": {\"H\": 1}, \"25\": {\"H\": 1}, \"26\": {\"H\": 1}, \"27\": {\"H\": 1}, \"28\": {\"H\": 1}, \"29\": {\"H\": 1}, \"30\": {\"H\": 1}, \"31\": {\"H\": 1}, \"32\": {\"H\": 1}, \"33\": {\"H\": 1}, \"34\": {\"H\": 1}, \"35\": {\"H\": 1}, \"36\": {\"H\": 1}, \"37\": {\"H\": 1}, \"38\": {\"H\": 1}, \"39\": {\"H\": 1}, \"40\": {\"H\": 1}, \"41\": {\"H\": 1}, \"42\": {\"H\": 1}, \"43\": {\"C\": 1}, \"44\": {\"C\": 1}, \"45\": {\"C\": 1}, \"46\": {\"C\": 1}, \"47\": {\"C\": 1}, \"48\": {\"C\": 1}, \"49\": {\"C\": 1}, \"50\": {\"C\": 1}, \"51\": {\"C\": 1}, \"52\": {\"C\": 1}, \"53\": {\"C\": 1}, \"54\": {\"C\": 1}, \"55\": {\"C\": 1}, \"56\": {\"C\": 1}, \"57\": {\"C\": 1}, \"58\": {\"C\": 1}, \"59\": {\"C\": 1}, \"60\": {\"C\": 1}, \"61\": {\"C\": 1}, \"62\": {\"C\": 1}, \"63\": {\"C\": 1}, \"64\": {\"C\": 1}, \"65\": {\"C\": 1}, \"66\": {\"C\": 1}, \"67\": {\"C\": 1}, \"68\": {\"C\": 1}, \"69\": {\"C\": 1}, \"70\": {\"C\": 1}, \"71\": {\"C\": 1}, \"72\": {\"C\": 1}, \"73\": {\"C\": 1}, \"74\": {\"C\": 1}, \"75\": {\"C\": 1}, \"76\": {\"C\": 1}, \"77\": {\"C\": 1}, \"78\": {\"C\": 1}, \"79\": {\"C\": 1}, \"80\": {\"C\": 1}, \"81\": {\"C\": 1}, \"82\": {\"C\": 1}, \"83\": {\"C\": 1}, \"84\": {\"C\": 1}, \"85\": {\"N\": 1}, \"86\": {\"N\": 1}, \"87\": {\"N\": 1}, \"88\": {\"N\": 1}, \"89\": {\"O\": 1}, \"90\": {\"O\": 1}, \"91\": {\"O\": 1}, \"92\": {\"O\": 1}, \"93\": {\"O\": 1}, \"94\": {\"O\": 1}}" energy=-617.6415405273438 free_energy=-617.6415405273438 stress="-0.0014426535926759243 0.0010712358634918928 -0.0002344537788303569 0.0010712358634918928 0.00010518648923607543 0.000314480101224035 -0.0002344537788303569 0.000314480101224035 -0.0001548133441247046" pbc="T T T"
Cd       4.19230835       5.45365623       8.25590042        0      -0.01050368       0.00172061      -0.00912488
H        0.71644470       5.52806333       5.47380583        1       0.08540477       0.00644398      -0.00339489
H        7.66635103       5.38051695      11.03531792        2      -0.08567287      -0.03919183      -0.03029764
H        2.69076904       5.32148135       3.95750826        3       0.05105940       0.04151717       0.03986144
H        5.69159067       5.58601392      12.55101070        4      -0.02954245      -0.02342876      -0.03815261
H        2.65067666       3.58391472       2.15641912        5       0.04243745      -0.02634830      -0.03082367
H        5.73144082       7.32422114      14.35272972        6      -0.03848179       0.02307476       0.02676480
H        0.68397469       2.12368085       1.87865920        7       0.01271468       0.00501230      -0.02221480
H        7.69922154       8.78447713      14.63171764        8      -0.01459128      -0.04747806      -0.01959154
H        5.28272761       5.70105506       0.11418400        9       0.01795167      -0.05439036      -0.05603312
H        3.09981296       5.20632125      16.39528112       10      -0.02193321       0.01887541       0.02585302
H        5.38542500       5.36857014       2.57815689       11      -0.02477023       0.00978310       0.00512615
H        2.99775318       5.53924735      13.93184827       12       0.02557402      -0.02840564       0.00291065
H        5.57108109       7.32934914       4.08345056       13      -0.03823142       0.01501706       0.05450714
H        2.81120217       3.57805502      12.42555860       14       0.03669365      -0.01087400      -0.01683597
H        4.99710160       3.38559938       1.28064816       15      -0.02608642       0.04933915      -0.02562754
H        3.38463175       7.52194095      15.23006641       16       0.03096022      -0.07331930       0.00250592
H        5.51036621       5.90858218      16.32759025       17       0.01390268       0.02943300      -0.00649006
H        2.87097799       4.99993715       0.18117470       18       0.02511965      -0.04089229       0.04064655
H        7.26613226       6.01314209      16.41350318       19      -0.00652222      -0.00855716      -0.01748551
H        1.11605561       4.89544126       0.09569575       20       0.00560547       0.00456076       0.02330039
H        7.27860794       3.62034722      14.82822643       21      -0.03462137      -0.04867431       0.02006148
H        1.10360432       7.28810893       1.68184847       22       0.03199805       0.04542580      -0.02605228
H        5.67478644       4.33957554      14.95820734       23      -0.01464903       0.02786122      -0.02419152
H        2.70669100       6.56873204       1.55217771       24       0.03561336      -0.05819429       0.02476478
H        6.16514497      10.32746936      14.76026553       25       0.00889644      -0.03636182      -0.09978591
H        2.21724048       0.58104255       1.74908588       26      -0.02424165      -0.00173095       0.08753618
H        6.05734473       9.19421244       8.61628669       27      -0.06109789      -0.07526255      -0.04254624
H        2.32528610       1.71523603       7.89320848       28       0.04571427      -0.00018033      -0.00661370
H        5.12050112       8.43710601       7.32380658       29      -0.06001886       0.00308910       0.06786765
H        3.26097147       2.47176538       9.18609784       30       0.00839328      -0.00163005      -0.11624099
H        6.38343573       1.45243393       5.60191179       31      -0.01950802       0.02025183       0.01162053
H        1.99901202       9.45652878      10.90737222       32       0.04415478      -0.03808685       0.00001046
H        1.78611455       0.96259050       4.43137427       33       0.03613077       0.03067943      -0.00009771
H        6.59578220       9.94679808      12.07718331       34      -0.03464593      -0.04316709       0.01803544
H        3.78301479       7.16795232       5.56602716       35       0.02774018      -0.01881383       0.05748743
H        4.59801441       3.74146633      10.94324185       36       0.00088836       0.01112281      -0.07108844
H        1.27842370       6.67002231       8.83119323       37       0.07056168       0.00827548      -0.00185966
H        7.10282834       4.23956107       7.67770712       38      -0.05687011      -0.01571748      -0.00143673
H        4.62643858       2.14621465       4.18990514       39      -0.02425740      -0.02352063      -0.04515639
H        3.75711008       8.76138628      12.32128619       40       0.03293575       0.01227489       0.01857400
H        5.01512962       7.51533267       9.71322417       41      -0.17317832      -0.12277779      -0.13844219
H        3.36886256       3.39270084       6.79729921       42       0.16784784       0.12148945       0.13507377
C        5.26553030       4.11111886       5.55544101       43       0.01215857      -0.06805883      -0.02550718
C        3.11726098       6.79689804      10.95473397       44      -0.02122983       0.00659451       0.01628393
C        6.36243102       3.95399068       4.55553694       45      -0.03844348      -0.00628895      -0.06944823
C        2.02105660       6.95321631      11.95491926       46       0.00752696      -0.02998357       0.03098185
C        0.72564180       4.78837211       4.67488809       47      -0.04162301       0.09974460       0.02575889
C        7.65683264       6.11864337      11.83365985       48       0.07843473      -0.03871046       0.02081794
C        1.82433007       4.67672600       3.82847087       49      -0.05625668      -0.03173074      -0.00214730
C        6.55885262       6.23123258      12.67981567       50       0.00491458       0.01428693       0.02034830
C        1.79548939       3.70722851       2.82032777       51       0.04980576       0.06776819      -0.00077423
C        6.58697250       7.20066234      13.68909073       52      -0.05474930      -0.09405600      -0.02032514
C        0.69066096       2.87930917       2.66076493       53       0.05061084      -0.01129654       0.04830196
C        7.69184684       8.02699213      13.84877383       54      -0.01685286       0.08206068      -0.00950103
C        6.33501040       2.97228685       3.51795941       55      -0.01206821      -0.05101143      -0.06432371
C        2.04832336       7.93511153      12.99103607       56      -0.04976484       0.02180767       0.08791742
C        5.17657531       1.03874125       2.47527466       57      -0.09156740       0.09728220       0.11736470
C        3.20690890       9.86831543      14.03377520       58       0.06208640      -0.09114179      -0.07232507
C        5.11065369       1.23889418       1.07593333       59       0.00385176       0.02602841      -0.06872734
C        3.27208859       9.66717913      15.43347849       60       0.00492544       0.07417019       0.05083946
C        5.03760371       0.11797262       0.22380783       61       0.05824100      -0.10734920       0.10905543
C        3.34531240      10.79161593      16.28566139       62      -0.07587808      -0.08457579      -0.11938695
C        5.34663497       6.56448686       0.77589553       63      -0.00010396      -0.02796926       0.00461142
C        3.03521972       4.34139468      15.73293552       64       0.02232034       0.16425949       0.04574326
C        5.39147493       6.37417209       2.15814747       65      -0.01469175       0.06173093      -0.00137496
C        2.99182592       4.53265294      14.35109114       66      -0.00021089       0.01358527       0.00613477
C        5.48320501       7.47310959       3.00683491       67       0.09585779      -0.05927717      -0.03629690
C        2.89784451       3.43601253      13.50371817       68      -0.07990749      -0.04894576      -0.06149635
C        5.07879764       2.62623014       0.49769916       69      -0.04569652       0.05487686      -0.02967917
C        3.30389601       8.28099080      16.01197827       70       0.00370006      -0.03379852       0.02637796
C        6.27203432       3.46609735      15.24364154       71      -0.02197316       0.13083577      -0.03785795
C        2.11006919       7.44071108       1.26566442       72       0.02369652      -0.03357761       0.05331033
C        5.93281720       8.25563729       8.04740765       73       0.10420625      -0.28891400       0.06953031
C        2.44733849       2.65199593       8.45970149       74       0.01074578       0.33842027       0.05004288
C        7.20806286       7.96087267       7.30647762       75      -0.05804788       0.00429025      -0.00222354
C        1.17439888       2.94733580       9.20126057       76       0.04863632      -0.03988203       0.05621627
C        7.46462948       8.53594844       6.05740896       77      -0.03332643      -0.00240048       0.02812071
C        0.91875607       2.37245702      10.45196434       78      -0.02152586       0.03917803      -0.06938994
C        1.90984544       8.26728513       5.40841101       79      -0.00894849       0.00689134      -0.02857000
C        6.47274027       2.64074606      11.10036547       80       0.00852948       0.01708719       0.00468716
C        2.83366126       7.43341187       6.03408316       81       0.02559161      -0.04018140      -0.04428162
C        5.54817410       3.47530139      10.47501393       82      -0.00673160       0.03740923       0.03119126
C        1.43674557       7.13769130       7.85992078       83       0.00388382      -0.11486050       0.08335194
C        6.94697304       3.76999328       8.64835574       84      -0.07950358       0.15254278      -0.07000029
N        5.24550071       2.13016235       3.37088757       85      -0.01557014      -0.04219973       0.08551449
N        3.13589198       8.77675765      13.13766615       86       0.06120507       0.11706483      -0.04466558
N        2.60086639       6.88973928       7.24419219       87       0.07105303       0.06403214      -0.02322222
N        5.78245952       4.01911873       9.26489185       88      -0.06015202      -0.08346486       0.03873974
O        4.43521384       3.13961028       5.71587440       89      -0.01578896       0.05427046       0.07027544
O        3.94739363       7.76734136      10.79561354       90       0.04784837      -0.02279606      -0.08524742
O        5.22833019       5.19900622       6.21862160       91      -0.00616970       0.06267507       0.03615333
O        3.15493027       5.70836866      10.29071476       92      -0.00306457      -0.03215447      -0.01471359
O        5.62237987       7.20086170       8.94519647       93       0.01203679       0.50280857      -0.03936435
O        2.75926009       3.70638438       7.56417433       94      -0.00089595      -0.47532052       0.01025446
95
Lattice="6.75899941 0.0 0.0 0.3387472421939897 7.735322619448597 0.0 1.2869015773311978 3.1719074352659016 16.511863769341254" Properties=species:S:1:pos:R:3:spacegroup_kinds:I:1:forces:R:3 spacegroup="P 1" unit_cell=conventional occupancy="_JSON {\"0\": {\"Cd\": 1}, \"1\": {\"H\": 1}, \"2\": {\"H\": 1}, \"3\": {\"H\": 1}, \"4\": {\"H\": 1}, \"5\": {\"H\": 1}, \"6\": {\"H\": 1}, \"7\": {\"H\": 1}, \"8\": {\"H\": 1}, \"9\": {\"H\": 1}, \"10\": {\"H\": 1}, \"11\": {\"H\": 1}, \"12\": {\"H\": 1}, \"13\": {\"H\": 1}, \"14\": {\"H\": 1}, \"15\": {\"H\": 1}, \"16\": {\"H\": 1}, \"17\": {\"H\": 1}, \"18\": {\"H\": 1}, \"19\": {\"H\": 1}, \"20\": {\"H\": 1}, \"21\": {\"H\": 1}, \"22\": {\"H\": 1}, \"23\": {\"H\": 1}, \"24\": {\"H\": 1}, \"25\": {\"H\": 1}, \"26\": {\"H\": 1}, \"27\": {\"H\": 1}, \"28\": {\"H\": 1}, \"29\": {\"H\": 1}, \"30\": {\"H\": 1}, \"31\": {\"H\": 1}, \"32\": {\"H\": 1}, \"33\": {\"H\": 1}, \"34\": {\"H\": 1}, \"35\": {\"H\": 1}, \"36\": {\"H\": 1}, \"37\": {\"H\": 1}, \"38\": {\"H\": 1}, \"39\": {\"H\": 1}, \"40\": {\"H\": 1}, \"41\": {\"H\": 1}, \"42\": {\"H\": 1}, \"43\": {\"C\": 1}, \"44\": {\"C\": 1}, \"45\": {\"C\": 1}, \"46\": {\"C\": 1}, \"47\": {\"C\": 1}, \"48\": {\"C\": 1}, \"49\": {\"C\": 1}, \"50\": {\"C\": 1}, \"51\": {\"C\": 1}, \"52\": {\"C\": 1}, \"53\": {\"C\": 1}, \"54\": {\"C\": 1}, \"55\": {\"C\": 1}, \"56\": {\"C\": 1}, \"57\": {\"C\": 1}, \"58\": {\"C\": 1}, \"59\": {\"C\": 1}, \"60\": {\"C\": 1}, \"61\": {\"C\": 1}, \"62\": {\"C\": 1}, \"63\": {\"C\": 1}, \"64\": {\"C\": 1}, \"65\": {\"C\": 1}, \"66\": {\"C\": 1}, \"67\": {\"C\": 1}, \"68\": {\"C\": 1}, \"69\": {\"C\": 1}, \"70\": {\"C\": 1}, \"71\": {\"C\": 1}, \"72\": {\"C\": 1}, \"73\": {\"C\": 1}, \"74\": {\"C\": 1}, \"75\": {\"C\": 1}, \"76\": {\"C\": 1}, \"77\": {\"C\": 1}, \"78\": {\"C\": 1}, \"79\": {\"C\": 1}, \"80\": {\"C\": 1}, \"81\": {\"C\": 1}, \"82\": {\"C\": 1}, \"83\": {\"C\": 1}, \"84\": {\"C\": 1}, \"85\": {\"N\": 1}, \"86\": {\"N\": 1}, \"87\": {\"N\": 1}, \"88\": {\"N\": 1}, \"89\": {\"O\": 1}, \"90\": {\"O\": 1}, \"91\": {\"O\": 1}, \"92\": {\"O\": 1}, \"93\": {\"O\": 1}, \"94\": {\"O\": 1}}" energy=-617.6519165039062 free_energy=-617.6519165039062 stress="-0.00114775775000453 0.0010893023572862148 6.972919800318778e-05 0.0010893023572862148 -0.00014863339310977608 -0.00018504372565075755 6.972919800318778e-05 -0.00018504372565075755 0.00014488238957710564" pbc="T T T"
Cd       4.19101456       5.45405170       8.25468381        0      -0.01457980       0.00308107      -0.01500709
H        0.71754454       5.52732081       5.47217823        1       0.07178441       0.02391984       0.01275367
H        7.66353318       5.37932650      11.03512706        2      -0.07177169      -0.03854887      -0.03705297
H        2.69160562       5.32278372       3.95694161        3      -0.01533842      -0.00972043       0.02972260
H        5.68904401       5.58616337      12.54982163        4       0.00449809       0.00109982      -0.04033450
H        2.65035586       3.58389009       2.15403803        5       0.02211972      -0.01599209      -0.00993064
H        5.72865390       7.32489015      14.35245403        6      -0.01801790       0.01610517       0.00581583
H        0.68243821       2.12405748       1.87682725        7       0.02138124       0.02523778      -0.00253132
H        7.69742530       8.78373583      14.63013072        8      -0.01442538      -0.03712748      -0.00866592
H        5.28278660       5.70117310       0.11219332        9       0.01612598      -0.06161189      -0.05421664
H        3.09800529       5.20658659      16.39420383       10      -0.01305795       0.07151298       0.06381664
H        5.38421574       5.36949307       2.57839136       11      -0.02697002       0.04662515      -0.00884688
H        2.99686721       5.53986807      13.92998371       12       0.02576880      -0.04058634       0.00240707
H        5.56858155       7.33022118       4.08300726       13      -0.03704437       0.00952411       0.01116708
H        2.81070444       3.57890681      12.42317766       14       0.03351399      -0.01527271      -0.01669498
H        4.99608525       3.38559579       1.27799573       15      -0.03269064       0.08580531       0.01207657
H        3.38386134       7.52175545      15.22929150       16       0.02996146      -0.07971419      -0.00949829
H        5.50944769       5.90876552      16.32551708       17       0.00005189       0.03860234      -0.01556518
H        2.86926035       4.99960202       0.18116525       18       0.01881319      -0.04030815       0.03001533
H        7.26500938       6.01340315      16.41170321       19      -0.01306225      -0.00353553      -0.01456422
H        1.11495872       4.89650296       0.09448637       20      -0.00736087      -0.00429250       0.02633572
H        7.27617624       3.61953818      14.82711109       21       0.00333766      -0.03466785      -0.00350327
H        1.10333139       7.28974166       1.68024340       22       0.00334649       0.03196422      -0.00820304
H        5.67299508       4.34033364      14.95561744       23      -0.02232965       0.04150288      -0.02401192
H        2.70632400       6.56859886       1.55159954       24       0.02822634      -0.04790328       0.02488688
H        6.16363794      10.32764312      14.75755547       25       0.01452380      -0.01143646      -0.08452969
H        2.21513662       0.58145686       1.74982318       26      -0.01267041       0.00297071       0.07655191
H        6.05441215       9.19368533       8.61449207       27      -0.04476720      -0.09407074      -0.05989223
H        2.32534411       1.71701194       7.89086148       28       0.03234487       0.01101287       0.01871455
H        5.11823841       8.43712500       7.32420752       29      -0.02017602      -0.00348905       0.07520732
H        3.25948609       2.47215839       9.18315041       30       0.00702150       0.00277462      -0.11042526
H        6.38176424       1.45298652       5.60058039       31      -0.02321415       0.03074885       0.00649986
H        1.99730451       9.45718007      10.90652842       32       0.03824818      -0.03918339      -0.00661471
H        1.78580350       0.96447577       4.42914534       33       0.02615185       0.01797278       0.01894166
H        6.59316063       9.94625060      12.07715462       34      -0.01460060      -0.01303313      -0.04566270
H        3.78195690       7.16684419       5.56681165       35       0.05507572      -0.02098337       0.02840148
H        4.59758937       3.74308962      10.94082331       36      -0.03146252       0.01783140      -0.05260158
H        1.27883491       6.67137398       8.83062325       37       0.06314595      -0.02438150       0.04677089
H        7.10063455       4.24003706       7.67584040       38      -0.05857176       0.01036002      -0.04209808
H        4.62395807       2.14673700       4.18813129       39      -0.00944876      -0.01594386      -0.04028869
H        3.75595891       8.76309308      12.32041481       40       0.05802973       0.01059172      -0.02201211
H        5.01222275       7.51275597       9.71259004       41      -0.18036655      -0.08239609      -0.14267227
H        3.36950442       3.39474553       6.79889695       42       0.21022746       0.06613621       0.07563813
C        5.26433494       4.11121946       5.55456795       43       0.01991156      -0.06910253      -0.04988991
C        3.11500396       6.79696618      10.95302901       44       0.02833679       0.03121551       0.02106537
C        6.36051970       3.95418749       4.55302745       45      -0.01833319       0.01891003      -0.05155459
C        2.02003608       6.95338180      11.95441416       46       0.00739061      -0.02757067       0.02295423
C        0.72328179       4.78923167       4.67283832       47      -0.00135537       0.05537945      -0.01877078
C        7.65674835       6.11826108      11.83245547       48       0.01779993      -0.01999910       0.05941604
C        1.82358457       4.67605496       3.82631056       49      -0.02091402       0.08840053       0.08331418
C        6.55689400       6.23290131      12.67807323       50      -0.00476174      -0.05272313      -0.01228082
C        1.79514060       3.70914894       2.81906994       51       0.05333915      -0.01395446      -0.07140684
C        6.58423585       7.20019012      13.68771763       52      -0.03344108      -0.04271436       0.00643619
C        0.69018622       2.87993528       2.65999414       53       0.06504191      -0.03434323      -0.00523657
C        7.69043804       8.02679927      13.84718777       54      -0.05694888       0.07417229       0.01598302
C        6.33475586       2.97204438       3.51534677       55      -0.04938699      -0.02910015      -0.01011647
C        2.04621857       7.93525645      12.99116060       56       0.05516569       0.05232751       0.04205240
C        5.17495049       1.04041580       2.47688147       57      -0.09053546       0.01882109      -0.10402867
C        3.20718771       9.86665275      14.03107961       58       0.05998456       0.06306431       0.00061697
C        5.10938985       1.23934684       1.07318651       59       0.01448987       0.04601990       0.08761251
C        3.27092945       9.66881458      15.43292491       60      -0.00032489      -0.05209879      -0.02994986
C        5.03788867       0.11788915       0.22278244       61       0.02960224      -0.08659430       0.04392811
C        3.34277074      10.79092316      16.28296539       62      -0.03458259       0.05588710      -0.00365045
C        5.34608608       6.56430038       0.77391426       63       0.00506263      -0.01092589       0.05971800
C        3.03525770       4.34402445      15.73230563       64      -0.00689129       0.01411071      -0.02858056
C        5.38981994       6.37619800       2.15773338       65      -0.01022708      -0.06404571      -0.09172753
C        2.99102751       4.53311022      14.34983122       66      -0.00304540      -0.00548864      -0.00543568
C        5.48267202       7.47303421       3.00464100       67       0.08609787       0.02988806       0.08987454
C        2.89626512       3.43523648      13.50116190       68      -0.05891328      -0.01364325       0.00717983
C        5.07707397       2.62775011       0.49591168       69      -0.01719570      -0.01808235      -0.06245977
C        3.30261556       8.28045600      16.01077785       70       0.02082014       0.02577487       0.04088000
C        6.27019477       3.46760837      15.24098934       71      -0.03939745       0.06158294       0.01323640
C        2.10948631       7.44102460       1.26570473       72       0.02948368      -0.04211667      -0.02334321
C        5.93340709       8.25288734       8.04628794       73      -0.01049557      -0.13807184       0.04185714
C        2.44503255       2.65490769       8.45795514       74       0.06850767       0.20541912       0.04743160
C        7.20607198       7.96109421       7.30462820       75       0.05081822      -0.07389302       0.01351044
C        1.17471542       2.94770577       9.20052161       76      -0.10566089       0.08094961      -0.02261285
C        7.46348402       8.53726657       6.05557984       77      -0.04042716      -0.03317748       0.06380907
C        0.91684138       2.37229261      10.44958163       78       0.01242156       0.02649479      -0.03842828
C        1.90819307       8.26764681       5.40601811       79       0.03101604       0.00018221      -0.03385013
C        6.47168089       2.64134326      11.09877012       80      -0.05178644       0.01773368       0.04638714
C        2.83261857       7.43314593       6.03159459       81      -0.03905076      -0.01063991      -0.00132711
C        5.54659148       3.47668829      10.47312498       82       0.04379076      -0.02914400       0.07110652
C        1.43617254       7.13569958       7.85966229       83      -0.05847752       0.01637876      -0.03531355
C        6.94402214       3.77246261       8.64562777       84       0.03869815       0.00980136       0.04148087
N        5.24548272       2.12867512       3.37095841       85      -0.01640826       0.01387447       0.11848769
N        3.13636259       8.77922667      13.13625723       86      -0.06109395      -0.04574901      -0.05895847
N        2.59978434       6.89141892       7.24310174       87       0.09546578       0.02940241      -0.02904204
N        5.78012252       4.01767574       9.26291039       88      -0.07032368      -0.02475071      -0.01125897
O        4.43456462       3.14037030       5.71665693       89      -0.02286518       0.02488670       0.05909922
O        3.94760699       7.76572587      10.79290765       90       0.02217861      -0.01788211      -0.06430354
O        5.22663912       5.19912384       6.21685814       91       0.00114334       0.08852910       0.05004059
O        3.15293452       5.70917370      10.28900189       92      -0.01789815      -0.06336375      -0.02728114
O        5.61979227       7.20367057       8.94263881       93       0.03097938       0.36585742       0.00926502
O        2.75813706       3.70361533       7.56193714       94      -0.04857633      -0.32706860       0.04376619
95
Lattice="6.75899941 0.0 0.0 0.3387472421939897 7.735322619448597 0.0 1.2869015773311978 3.1719074352659016 16.511863769341254" Properties=species:S:1:pos:R:3:spacegroup_kinds:I:1:forces:R:3 spacegroup="P 1" unit_cell=conventional occupancy="_JSON {\"0\": {\"Cd\": 1}, \"1\": {\"H\": 1}, \"2\": {\"H\": 1}, \"3\": {\"H\": 1}, \"4\": {\"H\": 1}, \"5\": {\"H\": 1}, \"6\": {\"H\": 1}, \"7\": {\"H\": 1}, \"8\": {\"H\": 1}, \"9\": {\"H\": 1}, \"10\": {\"H\": 1}, \"11\": {\"H\": 1}, \"12\": {\"H\": 1}, \"13\": {\"H\": 1}, \"14\": {\"H\": 1}, \"15\": {\"H\": 1}, \"16\": {\"H\": 1}, \"17\": {\"H\": 1}, \"18\": {\"H\": 1}, \"19\": {\"H\": 1}, \"20\": {\"H\": 1}, \"21\": {\"H\": 1}, \"22\": {\"H\": 1}, \"23\": {\"H\": 1}, \"24\": {\"H\": 1}, \"25\": {\"H\": 1}, \"26\": {\"H\": 1}, \"27\": {\"H\": 1}, \"28\": {\"H\": 1}, \"29\": {\"H\": 1}, \"30\": {\"H\": 1}, \"31\": {\"H\": 1}, \"32\": {\"H\": 1}, \"33\": {\"H\": 1}, \"34\": {\"H\": 1}, \"35\": {\"H\": 1}, \"36\": {\"H\": 1}, \"37\": {\"H\": 1}, \"38\": {\"H\": 1}, \"39\": {\"H\": 1}, \"40\": {\"H\": 1}, \"41\": {\"H\": 1}, \"42\": {\"H\": 1}, \"43\": {\"C\": 1}, \"44\": {\"C\": 1}, \"45\": {\"C\": 1}, \"46\": {\"C\": 1}, \"47\": {\"C\": 1}, \"48\": {\"C\": 1}, \"49\": {\"C\": 1}, \"50\": {\"C\": 1}, \"51\": {\"C\": 1}, \"52\": {\"C\": 1}, \"53\": {\"C\": 1}, \"54\": {\"C\": 1}, \"55\": {\"C\": 1}, \"56\": {\"C\": 1}, \"57\": {\"C\": 1}, \"58\": {\"C\": 1}, \"59\": {\"C\": 1}, \"60\": {\"C\": 1}, \"61\": {\"C\": 1}, \"62\": {\"C\": 1}, \"63\": {\"C\": 1}, \"64\": {\"C\": 1}, \"65\": {\"C\": 1}, \"66\": {\"C\": 1}, \"67\": {\"C\": 1}, \"68\": {\"C\": 1}, \"69\": {\"C\": 1}, \"70\": {\"C\": 1}, \"71\": {\"C\": 1}, \"72\": {\"C\": 1}, \"73\": {\"C\": 1}, \"74\": {\"C\": 1}, \"75\": {\"C\": 1}, \"76\": {\"C\": 1}, \"77\": {\"C\": 1}, \"78\": {\"C\": 1}, \"79\": {\"C\": 1}, \"80\": {\"C\": 1}, \"81\": {\"C\": 1}, \"82\": {\"C\": 1}, \"83\": {\"C\": 1}, \"84\": {\"C\": 1}, \"85\": {\"N\": 1}, \"86\": {\"N\": 1}, \"87\": {\"N\": 1}, \"88\": {\"N\": 1}, \"89\": {\"O\": 1}, \"90\": {\"O\": 1}, \"91\": {\"O\": 1}, \"92\": {\"O\": 1}, \"93\": {\"O\": 1}, \"94\": {\"O\": 1}}" energy=-617.658935546875 free_energy=-617.658935546875 stress="-0.0009822117863222957 0.0008976383833214641 1.8902781448559836e-05 0.0008976383833214641 7.308150816243142e-05 0.0004267996409907937 1.8902781448559836e-05 0.0004267996409907937 0.00033781869569793344" pbc="T T T"
Cd       4.18998068       5.45408010       8.25336778        0      -0.02405761       0.00476094      -0.02145093
H        0.71885537       5.52893845       5.47204062        1       0.05986085      -0.02135932      -0.03550705
H        7.66095161       5.37895728      11.03304152        2      -0.06177662       0.00129102       0.00621666
H        2.69033258       5.32297897       3.95606268        3       0.01501314       0.01728725       0.03740130
H        5.68776236       5.58766876      12.54770558        4      -0.00619853      -0.01033598      -0.04464796
H        2.64860065       3.58467265       2.15170685        5       0.04616039      -0.01721753      -0.02293000
H        5.72690323       7.32563211      14.35110069        6      -0.01917706       0.01690876       0.00887488
H        0.68132574       2.12465646       1.87515311        7       0.02765460       0.01696873      -0.00889510
H        7.69629571       8.78414267      14.62869909        8      -0.01472389      -0.01384678       0.01024882