87
Lattice="12.27171522 0.0 0.0 6.215146357684552 9.914052002696673 0.0 -0.19762830585218416 0.10995041931527186 19.448599671501377" Properties=species:S:1:pos:R:3:spacegroup_kinds:I:1:forces:R:3 spacegroup="P 1" unit_cell=conventional occupancy="_JSON {\"0\": {\"Al\": 1}, \"1\": {\"Al\": 1}, \"2\": {\"Al\": 1}, \"3\": {\"Al\": 1}, \"4\": {\"Al\": 1}, \"5\": {\"Al\": 1}, \"6\": {\"H\": 1}, \"7\": {\"H\": 1}, \"8\": {\"H\": 1}, \"9\": {\"H\": 1}, \"10\": {\"H\": 1}, \"11\": {\"H\": 1}, \"12\": {\"H\": 1}, \"13\": {\"H\": 1}, \"14\": {\"H\": 1}, \"15\": {\"H\": 1}, \"16\": {\"H\": 1}, \"17\": {\"H\": 1}, \"18\": {\"H\": 1}, \"19\": {\"H\": 1}, \"20\": {\"C\": 1}, \"21\": {\"C\": 1}, \"22\": {\"C\": 1}, \"23\": {\"C\": 1}, \"24\": {\"C\": 1}, \"25\": {\"C\": 1}, \"26\": {\"C\": 1}, \"27\": {\"C\": 1}, \"28\": {\"C\": 1}, \"29\": {\"C\": 1}, \"30\": {\"C\": 1}, \"31\": {\"C\": 1}, \"32\": {\"C\": 1}, \"33\": {\"C\": 1}, \"34\": {\"C\": 1}, \"35\": {\"C\": 1}, \"36\": {\"C\": 1}, \"37\": {\"C\": 1}, \"38\": {\"C\": 1}, \"39\": {\"C\": 1}, \"40\": {\"C\": 1}, \"41\": {\"C\": 1}, \"42\": {\"C\": 1}, \"43\": {\"C\": 1}, \"44\": {\"C\": 1}, \"45\": {\"C\": 1}, \"46\": {\"C\": 1}, \"47\": {\"C\": 1}, \"48\": {\"C\": 1}, \"49\": {\"C\": 1}, \"50\": {\"C\": 1}, \"51\": {\"C\": 1}, \"52\": {\"C\": 1}, \"53\": {\"C\": 1}, \"54\": {\"C\": 1}, \"55\": {\"C\": 1}, \"56\": {\"O\": 1}, \"57\": {\"O\": 1}, \"58\": {\"O\": 1}, \"59\": {\"O\": 1}, \"60\": {\"O\": 1}, \"61\": {\"O\": 1}, \"62\": {\"O\": 1}, \"63\": {\"O\": 1}, \"64\": {\"O\": 1}, \"65\": {\"O\": 1}, \"66\": {\"O\": 1}, \"67\": {\"O\": 1}, \"68\": {\"O\": 1}, \"69\": {\"O\": 1}, \"70\": {\"O\": 1}, \"71\": {\"O\": 1}, \"72\": {\"O\": 1}, \"73\": {\"O\": 1}, \"74\": {\"O\": 1}, \"75\": {\"O\": 1}, \"76\": {\"O\": 1}, \"77\": {\"O\": 1}, \"78\": {\"O\": 1}, \"79\": {\"O\": 1}, \"80\": {\"O\": 1}, \"81\": {\"O\": 1}, \"82\": {\"O\": 1}, \"83\": {\"O\": 1}, \"84\": {\"O\": 1}, \"85\": {\"O\": 1}, \"86\": {\"O\": 1}}" energy=-624.8275756835938 free_energy=-624.8275756835938 stress="-0.0012629947159439325 0.0011397331254556775 0.0008765394450165331 0.0011397331254556775 0.0020099771209061146 0.0024141569156199694 0.0008765394450165331 0.0024141569156199694 -0.0023160427808761597" pbc="T T T"
Al      12.33046160       4.74756357       9.62485591        0       0.45289299      -0.03505260       0.61197847
Al      10.72882931       7.47433527       9.62938010        1      -0.74782193       0.60737348      -0.00328979
Al      13.71587542       7.61794577       9.58908353        2       1.48765731       0.39270851       0.04466078
Al       5.96843744       5.53399343      19.02116061        3       0.09431343      -0.08208220       0.25034681
Al       7.42525187       2.69991748      19.01121873        4       0.80659389      -0.55144805      -0.10993176
Al       4.40229954       2.76510535      18.91970721        5       0.07005814      -0.83290982       0.68444943
H        3.93862045       0.69036068      15.37619006        6       0.23153922      -0.10085250      -0.04899078
H       14.02545587       9.84533843      12.34551466        7       0.00567845       0.01188696       0.39068168
H        3.25650946       3.95408378      13.91646211        8      -0.13535702       0.04171962      -0.35656729
H        8.67111553       6.89727070      12.48287964        9      -0.13784616       1.04444504      -1.36103773
H        4.27618443       6.81995520      15.55526470       10      -0.81500280      -0.51936185      -0.28176028
H        9.82533074       3.21442681      15.58681216       11       0.06096813      -0.20033239       0.16160873
H       10.15746685       9.69763838      13.11149599       12       0.49681202       0.09935602       0.15602124
H       15.38345227       7.42088962      13.38540047       13       0.10398448       0.89362967      -0.24277349
H       10.77224959       3.77727540      13.39619608       14      -0.28077900       0.14431870       0.26026207
H        7.00873587       0.45530617      15.37781593       15       1.30228221      -0.37736857      -0.47477704
H       14.60621012       4.35973435      15.54369694       16       0.14234041       0.08678636       0.13570735
H        8.48731616       6.02264840      15.54526900       17       0.35278612      -0.72273487      -0.05096469
H       13.08376989       2.62503634      10.27190843       18       0.98930848      -0.50275379       0.90368831
H        6.60867002       7.77111086      18.55842616       19      -0.41743386      -0.30777833       0.39564264
C       14.39467688       5.65215061       7.72691262       20       0.74322617       1.53013158       0.24480739
C        8.22242215       4.65411983      17.16304049       21      -0.46512473      -1.18835330       1.79085660
C        5.91125224       1.23152986      17.08642980       22      -1.10672414      -0.69732219      -0.25451690
C        3.79084030       4.76101872      17.13873672       23      -0.00825058      -0.86967486       0.14611810
C       14.57171844       5.82549488      11.48910039       24      -1.17269385      -1.63136744      -0.91017020
C       10.26555022       5.59690802      11.65874670       25       0.20596689      -0.25021765      -0.31884161
C       12.12614308       9.19824499      11.39147030       26      -2.93823671      -0.65055859      -0.69661582
C        6.02695078       0.43223702       2.65762358       27      -0.06093989       0.98780894      -4.15978241
C        3.49793453       4.78428905       2.78389906       28       1.24031842      -1.04715908      -5.03056335
C        8.76389180       4.55510871       2.87254977       29       0.31261897       0.38096258       2.13873076
C       12.15488643       9.79230178       5.12190104       30      -0.06172665      -0.54217273       1.44380975
C       10.06723843       5.47993743       7.83270722       31      -0.23580220       1.69841242       1.15278614
C       15.28480724       5.28140279       5.25686408       32       0.86428750      -0.62938315      -4.17303991
C        9.29153235       4.93016895       5.38077307       33      -0.08113890      -0.08993227      -0.50087690
C        5.95444744       0.14712023       3.80116127       34      -0.15553471      -1.03272367       4.58885431
C        3.27315555       5.05054756       3.91284669       35      -1.03066635       1.06902242       5.59467554
C        9.01417483       4.71671327       4.08183184       36      -0.30491266      -0.17555109      -1.49160755
C       12.14227359       9.48974580       6.32593495       37       0.21707064       0.22839189      -0.93955123
C       14.97725831       5.46154626       6.39716509       38      -1.04769790       0.52880287       3.59349847
C        9.54990854       5.16135224       6.55336268       39       0.05973268      -0.15676790      -0.07534429
C       12.22961226       9.78778467      12.72386632       40      -1.68220615       0.17536883       1.79620719
C       15.07491485       5.44837684      12.81030877       41       0.23296945       0.20059127       0.86203396
C       12.19720972       8.99150709       7.69665950       42       1.70313835       0.61662948      -1.55650401
C        9.66168335       5.41711771      12.98465686       43      -1.31943333       1.83583260       0.12370613
C        6.03251202       0.61183106      15.72477853       44      -2.50126076       0.99772239       0.87287843
C        3.14143231       5.03049868      15.85457132       45       0.16903570       1.19725001      -0.64261496
C        8.79335750       5.01092298      15.89169525       46      -0.59768343       1.42717659      -0.13362895
C        4.91167578       0.45554437      14.92582270       47       0.89214391       0.24731296       0.98619521
C       15.78499497       6.13010152      15.09963208       48       0.50718749      -0.29898173       0.51829863
C        9.55414007       4.17360702      15.16355194       49       0.08094218       0.17276183      -0.57830656
C       11.12842735       9.92938254      13.58661125       50      -0.02333397      -0.41964373      -1.80805564
C       15.37688289       6.41945419      13.74089601       51       0.05994987      -1.44986665       0.37630057
C       10.02233246       4.45479048      13.84416044       52       1.25444829      -1.63860679       0.08191042
C        8.22352113       4.42118144       1.56946869       53       0.25115791      -1.77103305      -2.02997255
C        6.07429075       0.98488940       1.34588184       54      -0.18977678       0.56748343      -1.13816857
C        3.98425422       4.49780840       1.41564489       55      -0.16599569       0.40142658       1.06215739
O       10.85129400       4.68282662       8.41744097       56      -0.18884256      -0.06840867      -0.15469110
O       14.72872166       7.01656600      11.07987864       57      -0.02382308       0.98678291      -0.26753846
O       13.93416788       4.90217992      10.85720612       58       0.06378019       0.39321315       0.04861097
O        9.76792605       6.56090208      10.96240342       59      -0.15462995       0.57147682      -0.37051612
O       13.20971797       9.02923812      10.77445766       60       1.33045888      -0.12585378      -0.53460503
O       12.29218594       6.64018620       9.62840417       61      -0.90328133      -0.64259112       0.05064779
O        4.69580846       5.40888557       0.88869681       62      -0.21584740      -0.50074112      -0.05321759
O        8.64609196       3.35027168       0.87991634       63      -0.35796210       1.92617631       1.41020083
O        4.99830824       1.21285360       0.69829241       64      -0.44208848      -0.17179257       0.45524219
O        7.38106503       5.26230366       1.15464828       65       0.17562458       0.07233389       0.36266425
O        7.22434606       1.29302145       0.90374249       66       0.77044284      -0.05178557       0.19331495
O       11.12531851       8.80411711       8.27848523       67      -2.17154884      -0.57496870       1.20023012
O        3.68049592       3.33870333       0.95142597       68       0.16229951       0.52743262      -0.01457398
O        4.75753197       5.49739208      17.50988445       69      -0.37343103      -0.02146977      -0.01663753
O        8.48290968       3.45148251      17.64002680       70      -0.41774428       1.09428763      -0.41141140
O        4.72117521       1.54085224      17.54181313       71       1.15768969      -0.14357632      -0.89221191
O        7.46242503       5.50633882      17.76055939       72       0.21917820      -0.09213485      -0.40063423
O        6.99779778       1.37910881      17.72952773       73       0.34581113       0.25330389      -0.03033637
O        3.35699262       3.68177900      17.75151186       74       0.17134334       1.14339995      -0.58504009
O        7.25012628       0.14568199      13.14068333       75       0.97437823       0.22278658      -0.38272765
O        2.84810553       4.10719875      13.02958954       76       0.27644888       0.20686254       0.38112628
O        8.72832346       6.37389188      13.27458380       77       0.18339121      -1.40651655       1.63758790
O       14.84890054       6.69825861       8.43104517       78      -0.85310018      -1.96833372      -1.21156049
O        5.95780942       3.67337951      19.01463422       79      -0.66186154      -0.09655441      -0.20267017
O       13.46274374       4.86244171       8.05568757       80       0.42465210       0.28482595      -0.07987781
O        9.70407508       6.67415711       8.29391523       81       0.60709929      -1.37378347      -0.49399933
O       13.36673122       8.75434602       8.16496205       82       0.22974984       0.11908631      -0.26373786
O       11.19868708       4.85255498      11.29583976       83       0.86373669      -0.67535901      -0.48294255
O       10.93908036       8.82012694      10.94785961       84       1.54666376       0.36009461       0.55517566
O       12.40921816       2.96262816       9.70382169       85      -0.98486787       0.56121564      -0.81644905
O        5.97217228       7.32768866      19.16627786       86       0.53824937       0.37726969      -0.63004076
87
Lattice="12.27171522 0.0 0.0 6.215146357684552 9.914052002696673 0.0 -0.19762830585218416 0.10995041931527186 19.448599671501377" Properties=species:S:1:pos:R:3:spacegroup_kinds:I:1:forces:R:3 spacegroup="P 1" unit_cell=conventional occupancy="_JSON {\"0\": {\"Al\": 1}, \"1\": {\"Al\": 1}, \"2\": {\"Al\": 1}, \"3\": {\"Al\": 1}, \"4\": {\"Al\": 1}, \"5\": {\"Al\": 1}, \"6\": {\"H\": 1}, \"7\": {\"H\": 1}, \"8\": {\"H\": 1}, \"9\": {\"H\": 1}, \"10\": {\"H\": 1}, \"11\": {\"H\": 1}, \"12\": {\"H\": 1}, \"13\": {\"H\": 1}, \"14\": {\"H\": 1}, \"15\": {\"H\": 1}, \"16\": {\"H\": 1}, \"17\": {\"H\": 1}, \"18\": {\"H\": 1}, \"19\": {\"H\": 1}, \"20\": {\"C\": 1}, \"21\": {\"C\": 1}, \"22\": {\"C\": 1}, \"23\": {\"C\": 1}, \"24\": {\"C\": 1}, \"25\": {\"C\": 1}, \"26\": {\"C\": 1}, \"27\": {\"C\": 1}, \"28\": {\"C\": 1}, \"29\": {\"C\": 1}, \"30\": {\"C\": 1}, \"31\": {\"C\": 1}, \"32\": {\"C\": 1}, \"33\": {\"C\": 1}, \"34\": {\"C\": 1}, \"35\": {\"C\": 1}, \"36\": {\"C\": 1}, \"37\": {\"C\": 1}, \"38\": {\"C\": 1}, \"39\": {\"C\": 1}, \"40\": {\"C\": 1}, \"41\": {\"C\": 1}, \"42\": {\"C\": 1}, \"43\": {\"C\": 1}, \"44\": {\"C\": 1}, \"45\": {\"C\": 1}, \"46\": {\"C\": 1}, \"47\": {\"C\": 1}, \"48\": {\"C\": 1}, \"49\": {\"C\": 1}, \"50\": {\"C\": 1}, \"51\": {\"C\": 1}, \"52\": {\"C\": 1}, \"53\": {\"C\": 1}, \"54\": {\"C\": 1}, \"55\": {\"C\": 1}, \"56\": {\"O\": 1}, \"57\": {\"O\": 1}, \"58\": {\"O\": 1}, \"59\": {\"O\": 1}, \"60\": {\"O\": 1}, \"61\": {\"O\": 1}, \"62\": {\"O\": 1}, \"63\": {\"O\": 1}, \"64\": {\"O\": 1}, \"65\": {\"O\": 1}, \"66\": {\"O\": 1}, \"67\": {\"O\": 1}, \"68\": {\"O\": 1}, \"69\": {\"O\": 1}, \"70\": {\"O\": 1}, \"71\": {\"O\": 1}, \"72\": {\"O\": 1}, \"73\": {\"O\": 1}, \"74\": {\"O\": 1}, \"75\": {\"O\": 1}, \"76\": {\"O\": 1}, \"77\": {\"O\": 1}, \"78\": {\"O\": 1}, \"79\": {\"O\": 1}, \"80\": {\"O\": 1}, \"81\": {\"O\": 1}, \"82\": {\"O\": 1}, \"83\": {\"O\": 1}, \"84\": {\"O\": 1}, \"85\": {\"O\": 1}, \"86\": {\"O\": 1}}" energy=-623.786865234375 free_energy=-623.786865234375 stress="-0.0035490449517965317 0.000392899353755638 0.0006176738534122705 0.000392899353755638 -0.0008555311942473054 0.0020198591519147158 0.0006176738534122705 0.0020198591519147158 -0.0037073222920298576" pbc="T T T"
Al      12.33175217       4.74137621       9.63332041        0       0.39357108       0.06679766       0.33300230
Al      10.74606120       7.44859111       9.65585596        1      -0.76601291       1.01813197      -0.40626100
Al      13.73701473       7.61394095       9.56845031        2       1.55440807       0.41696489       0.13370632
Al       5.97545585       5.55417163      19.02271997        3      -0.01615942      -0.55837899       0.15545297
Al       7.45317650       2.69530640      19.00183605        4       0.14478590      -0.57547891      -0.01812639
Al       4.42247458       2.76078834      18.93833628        5      -0.44008192      -0.94271582       0.16651291
H        3.96352516       0.69155945      15.35468084        6      -0.03854429      -0.01491591       0.28344268
H       14.00204064       9.84524591      12.36423432        7       0.45542431      -0.01160799       0.01430464
H        3.27703942       3.94912280      13.89708347        8      -0.06982397      -0.03972887      -0.20410986
H        8.68815453       6.89304756      12.49142270        9      -0.27233219       1.52161884      -1.84912658
H        4.25242655       6.82878469      15.52868408       10      -0.51854241      -0.43589717       0.10446651
H        9.81142618       3.23564783      15.58118997       11       0.39920259      -1.32028401       0.62990844
H       10.17549030       9.69413341      13.09548310       12       0.24070179       0.08711886       0.20840441
H       15.37327542       7.43312433      13.36620428       13       0.17646188       0.97339433      -0.19870527
H       10.79614792       3.76295945      13.37462588       14      -0.73027802       0.50042212       0.35147983
H        7.03575420       0.46700427      15.39267712       15       1.17332745      -0.33476561      -0.48287785
H       14.62713357       4.34390161      15.57098751       16      -0.31011239      -0.05821756      -0.12083316
H        8.50537370       6.00494405      15.51966475       17       0.03341994       0.14230162      -0.09530218
H       13.06198955       2.63528553      10.26152288       18       1.42708683      -0.79446715       1.22305799
H        6.62599791       7.78102682      18.53031056       19      -1.01272011      -0.74423641       1.02665949
C       14.38881150       5.66109450       7.70693252       20       0.88593000       1.05712748       0.57149023
C        8.21457203       4.63681453      17.15164544       21      -0.40227196       0.37878883       1.76207530
C        5.91950213       1.25247591      17.10137341       22      -3.01922607      -1.51174331      -1.93494511
C        3.78444864       4.74654135      17.13752178       23      -0.11421277      -0.22618023      -0.01461202
C       14.57848171       5.80235834      11.46682860       24      -0.70908028       0.18928701       0.34013718
C       10.27052849       5.60832052      11.63192934       25       0.62747169      -1.33134902       1.06980431
C       12.14892310       9.21169021      11.38195662       26      -4.38082027      -0.67239219       0.45861834
C        6.03693728       0.43044590       2.66214584       27      -0.13859293       1.23644662      -5.57322598
C        3.46995814       4.77627759       2.77204180       28       1.59809697      -1.68487906      -7.90412045
C        8.78450228       4.57203706       2.89204607       29      -0.62804955      -0.19301833      -1.46134806
C       12.16750703       9.79030427       5.11224632       30      -0.09944313      -0.87662315       3.07358980
C       10.04880456       5.49233993       7.82396207       31       1.13906348      -0.05316003       2.12716913
C       15.26128940       5.26994775       5.23728562       32       0.87774473      -0.55253583      -3.50358963
C        9.30908908       4.91438150       5.36789469       33       0.15588039       0.31195146       0.82313067
C        5.96004536       0.15062816       3.79511347       34      -0.19964083      -1.35306644       5.81541586
C        3.29045518       5.03225895       3.88750741       35      -1.72615457       1.77175140       8.77995777
C        9.04339526       4.72327639       4.06680628       36       0.22991617       0.12309652       1.16327989
C       12.15068372       9.49315757       6.33774873       37       0.28300536       0.51355076      -2.27169609
C       14.97082105       5.45791374       6.39143014       38      -0.74527830       0.39182287       2.11081266
C        9.53215400       5.18300637       6.55270142       39      -0.04783486      -0.73036492      -1.39121640
C       12.22512163       9.76351805      12.75057448       40      -0.74316627       0.41756088       0.74097568
C       15.05651577       5.42853860      12.83582428       41       0.62669694       2.90540981      -0.05351350
C       12.17185413       8.98503557       7.71016122       42       5.39159203       0.82120192      -2.41026092
C        9.64983698       5.44328940      12.99056901       43       0.68740708      -0.31091362      -0.82938647
C        6.04963023       0.63115174      15.71734469       44      -2.27547479       1.04617798       1.40508008
C        3.11701889       5.05251663      15.86479586       45       0.60182238       0.59223324      -0.20163983
C        8.78936409       5.03405576      15.90510788       46       0.64848042      -0.61144769      -1.35710371
C        4.93717215       0.44741568      14.93931102       47       0.64918530       0.16853842      -0.02375097
C       15.77401903       6.12411348      15.10575770       48       0.45478117       0.48107919       0.03948810
C        9.56206860       4.16394992      15.16039172       49      -0.92984974       2.26519656      -0.75005639
C       11.13318236       9.92380197      13.58304255       50      -0.11330885      -0.40710241      -0.91649675
C       15.39001094       6.44472792      13.74841018       51      -0.65327889      -2.86703873      -0.24626687
C       10.01954597       4.43749327      13.82085203       52       1.20503902      -1.33656836       0.36006755
C        8.22499180       4.40780050       1.58496040       53      -0.18225232      -1.51917934      -2.75677037
C        6.05584531       0.97312773       1.33531877       54       1.84993267       0.11040886       0.61908954
C        3.96443339       4.48058015       1.38699576       55       0.04872274       2.02366734       2.88434172
O       10.85752356       4.65622856       8.42860969       56      -1.63906610       1.47314596      -1.27115011
O       14.71646882       7.01318226      11.05109159       57       0.23635027       0.24282949       0.25102028
O       13.92400145       4.91291934      10.87111751       58      -0.50506788      -0.85332251      -0.75805950
O        9.78619184       6.55249863      10.93686751       59      -0.69942945       1.04483271      -0.64896166
O       13.21664853       9.04611950      10.77956288       60       1.88056517      -0.28943321      -1.05448627
O       12.31691485       6.63982357       9.62771388       61      -1.21215272      -0.69397163       0.06088740
O        4.67784040       5.41571995       0.91511451       62       0.07418935      -0.44834429      -0.78628480
O        8.63116074       3.33042583       0.86776765       63      -0.00200415       2.33126497       2.21432066
O        5.01669731       1.22253213       0.72122199       64      -2.64922857       0.20925328      -0.88297713
O        7.36920148       5.23458407       1.13041230       65       0.83567005      -0.25425249       1.20582473
O        7.21626047       1.26863368       0.91567483       66       1.23191309       0.13379672      -0.33212593
O       11.12463835       8.78625683       8.25920225       67      -4.02621078      -1.15771687       2.53321218
O        3.70648256       3.32806218       0.97247400       68      -0.21632187      -0.98806924      -1.11816037
O        4.74190317       5.49793049      17.50822365       69      -0.18434432      -0.15824614       0.21844795
O        8.49520133       3.46881612      17.62199351       70      -0.38052294      -0.37932009       0.06697400
O        4.71867132       1.52237192      17.55578407       71       1.05237556       0.13430409      -0.71000570
O        7.48332117       5.49895939      17.77861908       72      -0.16991262      -0.08312087      -0.39030561
O        6.97159777       1.37500441      17.72616992       73       2.60538721       0.80942768       1.37538981
O        3.34313147       3.67062445      17.73554290       74       0.45927066       0.78007537      -0.13145304
O        7.24858087       0.16635010      13.15216791       75       0.38497263       0.08773450       0.00623541
O        2.87210113       4.12979395      13.01689205       76       0.23483081      -1.26781976       0.79686296
O        8.75770307       6.36434196      13.26451625       77      -1.10867774      -0.35280848       2.56264710
O       14.85965135       6.68326162       8.41817460       78      -0.78707433      -1.65065646      -1.16996896
O        5.94833185       3.65509425      19.01814121       79      -0.04382595       0.20955053      -0.26742241
O       13.47809478       4.85525416       8.05842137       80       0.19937946       0.26803827      -0.06636198
O        9.68040034       6.66223086       8.28182440       81       0.84054554      -0.69436371       0.08866800
O       13.39495187       8.74633478       8.18557491       82      -1.67995572       0.65611315      -1.03915691
O       11.22068057       4.85924700      11.30657093       83       0.48853922      -0.35684305      -0.45440713
O       10.92279497       8.83199229      10.96217635       84       2.30190253       0.25983322       0.21307488
O       12.38278756       2.96536300       9.71014673       85      -1.27287960       0.65081304      -1.06288290
O        5.99146951       7.33539902      19.17525436       86       1.07416940       0.87348485      -1.24897516
87
Lattice="12.27171522 0.0 0.0 6.215146357684552 9.914052002696673 0.0 -0.19762830585218416 0.10995041931527186 19.448599671501377" Properties=species:S:1:pos:R:3:spacegroup_kinds:I:1:forces:R:3 spacegroup="P 1" unit_cell=conventional occupancy="_JSON {\"0\": {\"Al\": 1}, \"1\": {\"Al\": 1}, \"2\": {\"Al\": 1}, \"3\": {\"Al\": 1}, \"4\": {\"Al\": 1}, \"5\": {\"Al\": 1}, \"6\": {\"H\": 1}, \"7\": {\"H\": 1}, \"8\": {\"H\": 1}, \"9\": {\"H\": 1}, \"10\": {\"H\": 1}, \"11\": {\"H\": 1}, \"12\": {\"H\": 1}, \"13\": {\"H\": 1}, \"14\": {\"H\": 1}, \"15\": {\"H\": 1}, \"16\": {\"H\": 1}, \"17\": {\"H\": 1}, \"18\": {\"H\": 1}, \"19\": {\"H\": 1}, \"20\": {\"C\": 1}, \"21\": {\"C\": 1}, \"22\": {\"C\": 1}, \"23\": {\"C\": 1}, \"24\": {\"C\": 1}, \"25\": {\"C\": 1}, \"26\": {\"C\": 1}, \"27\": {\"C\": 1}, \"28\": {\"C\": 1}, \"29\": {\"C\": 1}, \"30\": {\"C\": 1}, \"31\": {\"C\": 1}, \"32\": {\"C\": 1}, \"33\": {\"C\": 1}, \"34\": {\"C\": 1}, \"35\": {\"C\": 1}, \"36\": {\"C\": 1}, \"37\": {\"C\": 1}, \"38\": {\"C\": 1}, \"39\": {\"C\": 1}, \"40\": {\"C\": 1}, \"41\": {\"C\": 1}, \"42\": {\"C\": 1}, \"43\": {\"C\": 1}, \"44\": {\"C\": 1}, \"45\": {\"C\": 1}, \"46\": {\"C\": 1}, \"47\": {\"C\": 1}, \"48\": {\"C\": 1}, \"49\": {\"C\": 1}, \"50\": {\"C\": 1}, \"51\": {\"C\": 1}, \"52\": {\"C\": 1}, \"53\": {\"C\": 1}, \"54\": {\"C\": 1}, \"55\": {\"C\": 1}, \"56\": {\"O\": 1}, \"57\": {\"O\": 1}, \"58\": {\"O\": 1}, \"59\": {\"O\": 1}, \"60\": {\"O\": 1}, \"61\": {\"O\": 1}, \"62\": {\"O\": 1}, \"63\": {\"O\": 1}, \"64\": {\"O\": 1}, \"65\": {\"O\": 1}, \"66\": {\"O\": 1}, \"67\": {\"O\": 1}, \"68\": {\"O\": 1}, \"69\": {\"O\": 1}, \"70\": {\"O\": 1}, \"71\": {\"O\": 1}, \"72\": {\"O\": 1}, \"73\": {\"O\": 1}, \"74\": {\"O\": 1}, \"75\": {\"O\": 1}, \"76\": {\"O\": 1}, \"77\": {\"O\": 1}, \"78\": {\"O\": 1}, \"79\": {\"O\": 1}, \"80\": {\"O\": 1}, \"81\": {\"O\": 1}, \"82\": {\"O\": 1}, \"83\": {\"O\": 1}, \"84\": {\"O\": 1}, \"85\": {\"O\": 1}, \"86\": {\"O\": 1}}" energy=-623.3862915039062 free_energy=-623.3862915039062 stress="-0.005995001643896103 0.002404779428616166 -0.0004928779089823365 0.002404779428616166 -0.00027760423836298287 0.0013712296495214105 -0.0004928779089823365 0.0013712296495214105 -0.0005291908164508641" pbc="T T T"
Al      12.34159499       4.74222939       9.65109919        0       0.26533785      -0.33886987      -0.03276009
Al      10.76994476       7.42170806       9.66433295        1      -1.55911410       1.58528304      -0.64306533
Al      13.75772230       7.63221257       9.57925750        2       0.74697644      -0.11849171       0.11636773
Al       5.95435045       5.57083703      19.04375889        3       0.41559568      -0.87087983       0.27843341
Al       7.42667767       2.70306154      19.00329660        4       0.83060956      -0.88807809      -0.16669130
Al       4.39796499       2.76778186      18.93038973        5       0.17846167      -1.03625464       0.44166496
H        3.97175628       0.71710965      15.36028425        6      -0.44824854       0.13908195       0.41393173
H       14.02876344       9.83711220      12.37957872        7       0.16115004      -0.02242662      -0.00269574
H        3.30066713       3.95751031      13.88057071        8       0.03640710      -0.16507597      -0.05988896
H        8.71481299       6.86799608      12.47046654        9      -0.28196600       1.18904305      -1.18354821
H        4.24460764       6.83490631      15.50996684       10       0.21989489       0.24780695       0.55601513
H        9.83299875       3.22054963      15.55584325       11      -0.02819671      -0.21366759       0.38509354
H       10.15764974       9.69603311      13.07911247       12       0.99444568       0.19910765       0.55600369
H       15.36046011       7.41300231      13.34508501       13       0.27528197       0.76214188       0.01554462
H       10.79077663       3.74952579      13.35181024       14      -0.43393278       0.28631377       0.36129946
H        7.01677502       0.44052129      15.40250236       15       3.01784635      -0.68976462      -1.07203960
H       14.63887497       4.34170880      15.55671415       16       0.06614834       0.24423592       0.18472886
H        8.52869261       6.02224739      15.50585319       17      -0.04805695      -0.18587056       0.13051684
H       13.06989934       2.64668010      10.25813203       18       2.28510690      -1.20456994       1.98641229
H        6.65010139       7.77176861      18.53716260       19      -1.44861794      -0.93619466       1.46060646
C       14.40429992       5.65079912       7.72209725       20       1.16475081       1.75522494       0.20796150
C        8.20491762       4.63918651      17.15850119       21      -0.16868275      -0.55742359       1.66787720
C        5.90951160       1.25854442      17.10150871       22      -3.42770338      -2.03331923      -2.84338140
C        3.81118075       4.76623893      17.15463131       23      -2.86972761      -2.95918441      -0.27425832
C       14.55955228       5.77888762      11.49253566       24       0.01967956       2.40362835      -0.57395291
C       10.28183113       5.59119018      11.63767974       25      -0.28869790      -0.99756527       1.43391657
C       12.13540333       9.21874516      11.36933678       26      -4.06721163      -0.51992959       1.38841963
C        6.02869412       0.41892836       2.63592722       27      -0.07850318       0.96318865      -4.40103340
C        3.44920055       4.75245300       2.74778672       28       0.66237307      -0.29482159      -2.34753537