96
Lattice="9.74899473 0.0 0.0 -1.2898868463908422 10.008606193288509 0.0 -4.091543722305528 -3.454896167994655 10.793024609936062" Properties=species:S:1:pos:R:3:spacegroup_kinds:I:1:forces:R:3 spacegroup="P 1" unit_cell=conventional occupancy="_JSON {\"0\": {\"Cd\": 1}, \"1\": {\"Cd\": 1}, \"2\": {\"H\": 1}, \"3\": {\"H\": 1}, \"4\": {\"H\": 1}, \"5\": {\"H\": 1}, \"6\": {\"H\": 1}, \"7\": {\"H\": 1}, \"8\": {\"H\": 1}, \"9\": {\"H\": 1}, \"10\": {\"H\": 1}, \"11\": {\"H\": 1}, \"12\": {\"H\": 1}, \"13\": {\"H\": 1}, \"14\": {\"H\": 1}, \"15\": {\"H\": 1}, \"16\": {\"H\": 1}, \"17\": {\"H\": 1}, \"18\": {\"H\": 1}, \"19\": {\"H\": 1}, \"20\": {\"H\": 1}, \"21\": {\"H\": 1}, \"22\": {\"H\": 1}, \"23\": {\"H\": 1}, \"24\": {\"H\": 1}, \"25\": {\"H\": 1}, \"26\": {\"H\": 1}, \"27\": {\"H\": 1}, \"28\": {\"H\": 1}, \"29\": {\"H\": 1}, \"30\": {\"H\": 1}, \"31\": {\"H\": 1}, \"32\": {\"H\": 1}, \"33\": {\"H\": 1}, \"34\": {\"H\": 1}, \"35\": {\"H\": 1}, \"36\": {\"H\": 1}, \"37\": {\"H\": 1}, \"38\": {\"H\": 1}, \"39\": {\"H\": 1}, \"40\": {\"H\": 1}, \"41\": {\"H\": 1}, \"42\": {\"C\": 1}, \"43\": {\"C\": 1}, \"44\": {\"C\": 1}, \"45\": {\"C\": 1}, \"46\": {\"C\": 1}, \"47\": {\"C\": 1}, \"48\": {\"C\": 1}, \"49\": {\"C\": 1}, \"50\": {\"C\": 1}, \"51\": {\"C\": 1}, \"52\": {\"C\": 1}, \"53\": {\"C\": 1}, \"54\": {\"C\": 1}, \"55\": {\"C\": 1}, \"56\": {\"C\": 1}, \"57\": {\"C\": 1}, \"58\": {\"C\": 1}, \"59\": {\"C\": 1}, \"60\": {\"C\": 1}, \"61\": {\"C\": 1}, \"62\": {\"C\": 1}, \"63\": {\"C\": 1}, \"64\": {\"C\": 1}, \"65\": {\"C\": 1}, \"66\": {\"C\": 1}, \"67\": {\"C\": 1}, \"68\": {\"C\": 1}, \"69\": {\"C\": 1}, \"70\": {\"C\": 1}, \"71\": {\"C\": 1}, \"72\": {\"C\": 1}, \"73\": {\"C\": 1}, \"74\": {\"C\": 1}, \"75\": {\"C\": 1}, \"76\": {\"C\": 1}, \"77\": {\"C\": 1}, \"78\": {\"C\": 1}, \"79\": {\"C\": 1}, \"80\": {\"N\": 1}, \"81\": {\"N\": 1}, \"82\": {\"N\": 1}, \"83\": {\"N\": 1}, \"84\": {\"N\": 1}, \"85\": {\"N\": 1}, \"86\": {\"N\": 1}, \"87\": {\"N\": 1}, \"88\": {\"O\": 1}, \"89\": {\"O\": 1}, \"90\": {\"O\": 1}, \"91\": {\"O\": 1}, \"92\": {\"O\": 1}, \"93\": {\"O\": 1}, \"94\": {\"O\": 1}, \"95\": {\"O\": 1}}" energy=-620.662841796875 free_energy=-620.662841796875 stress="0.0012519808951765299 -0.0013906884705647826 0.0011430007871240377 -0.0013906884705647826 -0.008500996045768261 0.003914593253284693 0.0011430007871240377 0.003914593253284693 -0.002379539655521512" pbc="T T T"
Cd       2.79610454      -0.94145460       3.65758762        0       0.10322341       0.28407788      -0.43691179
Cd       1.57172593       7.49559916       7.13505195        1      -0.12277515      -0.29874673       0.43139845
H        0.96050235       6.90783753       1.54033297        2      -0.08964901      -0.25105911      -0.09925811
H        3.40561165      -0.35567392       9.25237028        3       0.07534815       0.30581746       0.05978476
H        1.72556385       3.58256859       3.58796310        4       0.02003729       0.00664482      -0.00218174
H        2.64013666       2.97025968       7.20179950        5      -0.01167277      -0.00342110       0.00358401
H        0.12361203      -0.78167803       6.49921984        6       0.02357316       0.08175610      -0.00500253
H        4.24188651       7.33584083       4.29335655        7      -0.02962412      -0.09688593       0.01518036
H       -1.07792929       1.61748520       6.19061376        8      -0.00976561      -0.05971508       0.04589278
H        5.44255209       4.93699514       4.60063670        9       0.01397119       0.05314077      -0.04479617
H        4.92201668       6.80865150       8.60869221       10      -0.04452904       0.13924436       0.00144574
H       -0.55744607      -0.25479052       2.18295053       11       0.04413440      -0.11071701      -0.00306820
H        5.60367996       5.34470858       7.92244026       12       0.00881166      -0.09456778      -0.00813790
H       -1.23841488       1.21129631       2.86766584       13       0.00105884       0.12743905       0.04706732
H       -2.32949731      -0.32080260       6.17444153       14       0.11773065      -0.02746151       0.01786405
H        6.69562957       6.87644775       4.61554426       15      -0.13542803      -0.02967371       0.05150301
H       -3.04207347      -0.42464418       7.80139743       16      -0.06858720       0.02681505       0.10287283
H        7.40940343       6.97774291       2.98962453       17       0.04454111       0.00123185      -0.05679302
H        6.28811853      -1.63442647       6.57780992       18      -0.10660212      -0.09732467       0.02716143
H       -1.91870256       8.19044657       4.21339636       19       0.00796459       0.03913464      -0.06031646
H       -1.19503921       5.90483365       5.72414429       20      -0.00379081       0.02062133      -0.01206635
H        5.56121362       0.64906095       5.06710165       21       0.01040304      -0.03525460       0.00271716
H       -2.14643781       3.81941793       6.69845920       22       0.02738155      -0.01311409       0.01385649
H        6.51091443       2.73476541       4.09309164       23       0.00743868       0.01956636      -0.04422324
H        0.33898612       5.44427942       8.70907470       24       0.06801900      -0.01929309       0.07702276
H        4.02863677       1.10991588       2.08095283       25      -0.08243525       0.02757915      -0.06336696
H       -1.18913326       4.56165918       8.74125073       26      -0.08063142      -0.04740212      -0.01353766
H        5.55776106       1.99056002       2.04882487       27       0.10009004       0.10550426       0.03078746
H       -0.77608177       5.62764955      10.08931532       28       0.03587120      -0.02612781       0.01731182
H        5.14176855       0.92711320       0.70156392       29      -0.02879477       0.02267624      -0.01169419
H        1.81048122       1.55957036       1.60121786       30      -0.05506036       0.04556553       0.05016031
H        2.55580954       4.99363488       9.18842855       31       0.04773210      -0.01573876      -0.00655720
H        0.87983147       1.66958829       0.08473266       32      -0.04274632       0.07644575       0.03397429
H        3.48775241       4.88557065      10.70567176       33      -0.03868936      -0.05029808      -0.06481859
H        2.64649604       1.71807606       0.02780330       34      -0.02828787       0.01473188       0.01933118
H        1.71956330       4.83697119      10.76190195       35      -0.00933892      -0.03322418       0.00790100
H       -3.54360435       2.11661503      10.20069413       36      -0.00713017       0.07220002       0.09538265
H        7.91206004       4.43666538       0.58842616       37       0.00040767      -0.07044035      -0.07841145
H       -2.91124684       2.97243631       8.78040124       38       0.00277422       0.00877557      -0.04610004
H        7.27745342       3.58162952       2.01045143       39      -0.02055615       0.00140950       0.06244523
H        5.09101139       2.89676594       9.04965236       40      -0.02843716       0.02893611      -0.03753982
H       -0.72414262       3.65672807       1.74118504       41       0.02825099      -0.02357647       0.04543089
C        0.89286477       6.11314519       3.98679314       42      -0.07511093      -0.07807651       0.05935250
C        3.47374895       0.43924257       6.80556642       43       0.06578983       0.20287305      -0.01511125
C        0.88051209       3.63473760       4.27357379       44      -0.02160591      -0.04254339      -0.00100727
C        3.48659166       2.91942255       6.51757128       45      -0.00012743       0.07442102       0.00976858
C       -3.61290292       4.25084536      10.36180339       46      -0.03901387       0.04631659      -0.01594955
C        7.97952393       2.30255700       0.42897709       47       0.02759826       0.08458543       0.03663170
C        0.39352827       2.46598140       4.86571292       48      -0.02411229       0.03901139       0.02326576
C        3.97352344       4.08898629       5.92622414       49       0.00307763      -0.07206687      -0.01267268
C       -2.74946753       6.96047831       8.14112256       50       0.04079804      -0.02025421       0.07013956
C        7.11582751      -0.40768846       2.65086897       51      -0.04389988       0.07142773      -0.10895590
C        0.52916944       9.78902891       0.40367720       52       0.04399585       0.07950619       0.05034976
C        3.83770552      -3.23468693      10.38859074       53      -0.07973979      -0.06346080      -0.12275629
C       -1.49589342      -1.86244894       7.40347315       54       0.04477972      -0.05615745      -0.05659201
C        5.85998793       8.41412156       3.38629274       55       0.03800642       0.06692994       0.09852336
C        1.04600185       1.14806644       4.57500264       56       0.00164929       0.12994343      -0.06623316
C        3.32071909       5.40611168       6.21642786       57      -0.07550797      -0.19691962       0.13129856
C        0.31728809       4.87173675       4.59196536       58      -0.02064517      -0.07823016      -0.02753024
C        4.04969012       1.68365303       6.19888613       59       0.00218216      -0.02772300       0.05454521
C       -0.69662413       2.53370382       5.74739462       60       0.02670580       0.04804720      -0.05889118
C        5.06232969       4.02024080       5.04426571       61      -0.00873458      -0.00408028       0.03956117
C       -3.93162396       6.16589952       8.62781484       62      -0.17827767      -0.00498419      -0.08910248
C        8.29775101       0.39104496       2.16412730       63       0.14744914      -0.09723104       0.04331365
C       -2.64394173      -1.01572277       6.96488470       64      -0.10781708       0.01088014      -0.11590713
C        7.00954110       7.56947837       3.82746752       65       0.21798384       0.06951690       0.02289441
C       -0.76647367       4.93590291       5.47718929       66      -0.00698319       0.02533336       0.04358962
C        5.13237307       1.61751425       5.31268784       67       0.00966241       0.04311132      -0.03297281
C       -1.37047729       6.65314130       8.29481225       68       0.09908982      -0.00886118      -0.00200805
C        5.73754130      -0.09973683       2.49640652       69      -0.15936989       0.01421109      -0.00049703
C       -1.27994428       3.76797267       6.03732139       70      -0.04078573      -0.04453611       0.06972162
C        5.64550427       2.78702602       4.75325520       71       0.01336506      -0.02248901      -0.04331574
C       -3.73178232       5.59592113       9.99840989       72       0.05226268      -0.08272950       0.06128138
C        8.09740193       0.95996214       0.79179391       73      -0.02639704      -0.02572134       0.04877788
C       -0.71467516       5.51777840       8.99662867       74      -0.05006634      -0.14313897       0.01674342
C        5.08205244       1.03714888       1.79455651       75       0.05155770       0.06114659      -0.03997308
C        1.78833147       1.26324383       0.54809970       76       0.07532429       0.02568680      -0.05886649
C        2.57567185       5.29252603      10.24249349       77       0.06930813      -0.09888816       0.04225515
C       -3.68929630       2.99631310       9.56058448       78       0.01528472      -0.07990566      -0.13028660
C        8.05549083       3.55869905       1.23166869       79       0.01042448       0.02290285       0.05619612
N        0.73685027       8.94241685       1.43320528       80       0.02047711       0.17448105       0.00784564
N        3.62899704      -2.38883072       9.35805429       81      -0.00903262      -0.16127092       0.01598489
N        0.70038807       7.68857623       0.90740686       82       0.06035176      -0.34055465       0.30186513
N        3.66597044      -1.13477794       9.88391649       83      -0.04966463       0.29412803      -0.29518786
N        0.65857149      -2.41761754       7.66771727       84       0.04258853      -0.18888733       0.05573266
N        3.70558848       8.97158064       3.12283810       85       0.04375690       0.18327406      -0.04433797
N       -0.20878110      -1.51618632       7.14410476       86       0.19024125       0.25432256      -0.11711649
N        4.57397563       8.06965714       3.64850147       87      -0.23868507      -0.22121161       0.06785288
O        0.75593397       7.20776459       4.67420218       88      -0.02095182      -0.14116949      -0.00467826
O        3.61200570      -0.65335268       6.11829689       89       0.02380442       0.09272218      -0.01077005
O        2.07980983       1.17503795       3.80629073       90       0.11258791      -0.05456692      -0.08606337
O        2.28541580       5.37621852       6.98523803       91      -0.07451290       0.08284883       0.05675621
O        1.46094102       6.03991094       2.87370221       92       0.11181363       0.02365702       0.10040285
O        2.90450219       0.51366077       7.91917793       93      -0.08091837      -0.03456447      -0.16586991
O        0.58728288       0.08051026       5.06680136       94      -0.05977713      -0.03920622      -0.15546072
O        3.77802950       6.47327025       5.72620279       95       0.08558968       0.10287237       0.12817001
96
Lattice="9.74899473 0.0 0.0 -1.2898868463908422 10.008606193288509 0.0 -4.091543722305528 -3.454896167994655 10.793024609936062" Properties=species:S:1:pos:R:3:spacegroup_kinds:I:1:forces:R:3 spacegroup="P 1" unit_cell=conventional occupancy="_JSON {\"0\": {\"Cd\": 1}, \"1\": {\"Cd\": 1}, \"2\": {\"H\": 1}, \"3\": {\"H\": 1}, \"4\": {\"H\": 1}, \"5\": {\"H\": 1}, \"6\": {\"H\": 1}, \"7\": {\"H\": 1}, \"8\": {\"H\": 1}, \"9\": {\"H\": 1}, \"10\": {\"H\": 1}, \"11\": {\"H\": 1}, \"12\": {\"H\": 1}, \"13\": {\"H\": 1}, \"14\": {\"H\": 1}, \"15\": {\"H\": 1}, \"16\": {\"H\": 1}, \"17\": {\"H\": 1}, \"18\": {\"H\": 1}, \"19\": {\"H\": 1}, \"20\": {\"H\": 1}, \"21\": {\"H\": 1}, \"22\": {\"H\": 1}, \"23\": {\"H\": 1}, \"24\": {\"H\": 1}, \"25\": {\"H\": 1}, \"26\": {\"H\": 1}, \"27\": {\"H\": 1}, \"28\": {\"H\": 1}, \"29\": {\"H\": 1}, \"30\": {\"H\": 1}, \"31\": {\"H\": 1}, \"32\": {\"H\": 1}, \"33\": {\"H\": 1}, \"34\": {\"H\": 1}, \"35\": {\"H\": 1}, \"36\": {\"H\": 1}, \"37\": {\"H\": 1}, \"38\": {\"H\": 1}, \"39\": {\"H\": 1}, \"40\": {\"H\": 1}, \"41\": {\"H\": 1}, \"42\": {\"C\": 1}, \"43\": {\"C\": 1}, \"44\": {\"C\": 1}, \"45\": {\"C\": 1}, \"46\": {\"C\": 1}, \"47\": {\"C\": 1}, \"48\": {\"C\": 1}, \"49\": {\"C\": 1}, \"50\": {\"C\": 1}, \"51\": {\"C\": 1}, \"52\": {\"C\": 1}, \"53\": {\"C\": 1}, \"54\": {\"C\": 1}, \"55\": {\"C\": 1}, \"56\": {\"C\": 1}, \"57\": {\"C\": 1}, \"58\": {\"C\": 1}, \"59\": {\"C\": 1}, \"60\": {\"C\": 1}, \"61\": {\"C\": 1}, \"62\": {\"C\": 1}, \"63\": {\"C\": 1}, \"64\": {\"C\": 1}, \"65\": {\"C\": 1}, \"66\": {\"C\": 1}, \"67\": {\"C\": 1}, \"68\": {\"C\": 1}, \"69\": {\"C\": 1}, \"70\": {\"C\": 1}, \"71\": {\"C\": 1}, \"72\": {\"C\": 1}, \"73\": {\"C\": 1}, \"74\": {\"C\": 1}, \"75\": {\"C\": 1}, \"76\": {\"C\": 1}, \"77\": {\"C\": 1}, \"78\": {\"C\": 1}, \"79\": {\"C\": 1}, \"80\": {\"N\": 1}, \"81\": {\"N\": 1}, \"82\": {\"N\": 1}, \"83\": {\"N\": 1}, \"84\": {\"N\": 1}, \"85\": {\"N\": 1}, \"86\": {\"N\": 1}, \"87\": {\"N\": 1}, \"88\": {\"O\": 1}, \"89\": {\"O\": 1}, \"90\": {\"O\": 1}, \"91\": {\"O\": 1}, \"92\": {\"O\": 1}, \"93\": {\"O\": 1}, \"94\": {\"O\": 1}, \"95\": {\"O\": 1}}" energy=-620.6827392578125 free_energy=-620.6827392578125 stress="0.001728305360302329 -0.0014625370968133211 0.0010271789506077766 -0.0014625370968133211 -0.007500870618969202 0.0038148255553096533 0.0010271789506077766 0.0038148255553096533 -0.0016574213514104486" pbc="T T T"
Cd       2.79877100      -0.93852430       3.65477520        0       0.07704087       0.23755977      -0.40435684
Cd       1.56985512       7.49274490       7.13802430        1      -0.10346054      -0.24296546       0.39328280
H        0.95757681       6.90505055       1.53857176        2      -0.05896136      -0.29733205      -0.03177065
H        3.40333593      -0.35272576       9.25063203        3       0.07006159       0.30368856       0.03669831
H        1.72443117       3.58187645       3.58657717        4       0.00234155       0.01147787       0.01121435
H        2.63918417       2.97015834       7.20093257        5      -0.00123106      -0.00088451      -0.00464447
H        0.12296668      -0.78082189       6.49768507        6       0.07550941       0.14556918      -0.06947097
H        4.24146971       7.33551426       4.29231720        7      -0.08277728      -0.14552671       0.06455283
H       -1.07941122       1.61653066       6.19074675        8       0.01503062      -0.01914715       0.01496892
H        5.44155584       4.93823982       4.59829394        9      -0.00733857       0.01342218      -0.02126037
H        4.91918535       6.81125332       8.60583619       10      -0.02094061       0.11300090       0.00417220
H       -0.55875641      -0.25688259       2.18144809       11       0.07914084      -0.11368802       0.00829356
H        5.60268822       5.34381849       7.92094398       12       0.00295923      -0.07693954      -0.00828393
H       -1.24033038       1.21345213       2.86519417       13       0.02152918       0.11523063       0.06306045
H       -2.32736670      -0.32004667       6.17268232       14       0.09749682      -0.02700529       0.01492275
H        6.69293847       6.87594363       4.61591843       15      -0.08862871       0.03659330      -0.01133390
H       -3.04453656      -0.42402106       7.80223201       16      -0.03333069      -0.00918591       0.03198370
H        7.40996031       6.97740097       2.98797187       17       0.01919234       0.04372055      -0.00044396
H        6.28662087      -1.63667244       6.57782047       18      -0.07577280      -0.05728572       0.02127060
H       -1.91887366       8.19117319       4.21128097       19       0.06889970       0.08358686      -0.02071160
H       -1.19565554       5.90544068       5.72386152       20       0.00062870       0.01077883      -0.01282242
H        5.56117754       0.64983538       5.06534136       21       0.00757275      -0.03199548       0.00485123
H       -2.14612155       3.81943159       6.69672120       22      -0.01966888      -0.01820795       0.05224389
H        6.51022859       2.73581244       4.09071156       23      -0.02697933       0.01703100      -0.01914927
H        0.33868399       5.44431857       8.70962142       24       0.07704231      -0.03237607       0.06958821
H        4.02632709       1.11241577       2.07940387       25      -0.01543906       0.02389830      -0.07900783
H       -1.18978433       4.56171466       8.73987117       26      -0.09939123      -0.08735561      -0.02615333
H        5.55969395       1.99338920       2.04773404       27       0.05499337       0.00954334       0.00812417
H       -0.77582360       5.62726763      10.08855815       28       0.03035891      -0.03552122       0.00566619
H        5.14053653       0.92830644       0.69992324       29      -0.02339751       0.01760706      -0.01519319
H        1.80876463       1.56088761       1.60099333       30      -0.04557259       0.03463914       0.00735255
H        2.55522998       4.99349492       9.18652639       31       0.04609513      -0.00742711       0.05556104
H        0.87833945       1.67184410       0.08357963       32       0.00582505       0.04752166       0.05193028
H        3.48704864       4.88631548      10.70303511       33       0.00004613      -0.06848942      -0.03242012
H        2.64538440       1.71948360       0.02664355       34       0.00435485       0.02651006       0.00357271
H        1.71849924       4.83726347      10.76053093       35      -0.02125824      -0.05019861       0.02486533
H       -3.54417656       2.11676770      10.20132097       36      -0.01940904       0.09949576       0.05891146
H        7.91204038       4.43594186       0.58688129       37      -0.00360722      -0.05189279      -0.08515917
H       -2.91153916       2.97211522       8.77866601       38      -0.01072762       0.00707305      -0.03312964
H        7.27704486       3.58195626       2.01036335       39      -0.01745031       0.00485380       0.05144321
H        5.09034421       2.89783756       9.04781402       40      -0.05857965       0.01378602      -0.05401688
H       -0.72499807       3.65616911       1.74086614       41       0.02509974      -0.01392877       0.04429230
C        0.89078328       6.11092029       3.98646432       42      -0.02115530       0.03497069       0.04789130
C        3.47234879       0.44179884       6.80331905       43       0.05064240       0.08292344      -0.01843190
C        0.87899800       3.63476419       4.27277291       44       0.01346378      -0.03738498      -0.03683639
C        3.48595674       2.91905063       6.51638146       45      -0.04395910       0.06636924       0.04644934
C       -3.61495977       4.25089998      10.36045881       46       0.00016458       0.01421738       0.08305973
C        7.98061344       2.30354009       0.42975690       47      -0.03166249       0.04440898      -0.15839174
C        0.39226248       2.46633042       4.86403802       48      -0.01252690       0.02298245       0.02562029
C        3.97269753       4.08770268       5.92513370       49      -0.01409379       0.01838577      -0.02333252
C       -2.74980948       6.96050366       8.14148326       50       0.06791703       0.01184457       0.03106940
C        7.11520139      -0.40698825       2.64924283       51      -0.06464484       0.02504596      -0.06171462
C        0.52861827       9.79027845       0.40349236       52       0.04643720       0.01749659      -0.00921800
C        3.83547261      -3.23652542      10.38604063       53      -0.03382549       0.07381344       0.00651088
C       -1.49548919      -1.86339103       7.40210500       54       0.05175689       0.04245596      -0.08837578
C        5.85964635       8.41487555       3.38644568       55      -0.04391685       0.07190579       0.07524177
C        1.04462551       1.15027956       4.57382224       56       0.04862584      -0.05149752      -0.08609287
C        3.31880954       5.40543211       6.21568172       57      -0.01320654      -0.07531607       0.09733739
C        0.31622703       4.87144174       4.59105958       58      -0.05158873      -0.09808074      -0.00865978
C        4.04741566       1.68356637       6.19865172       59       0.11156078       0.01210943      -0.03362343
C       -0.69712777       2.53325396       5.74529934       60      -0.03915684       0.02056225       0.00485239
C        5.06069696       4.02055856       5.04307330       61       0.01654367       0.02033246       0.01190134
C       -3.93454166       6.16692584       8.62507592       62      -0.14125603      -0.02444340      -0.02646226
C        8.29920983       0.39056180       2.16422856       63       0.05951965      -0.06054075      -0.02174664
C       -2.64523029      -1.01422953       6.96212919       64      -0.09681998      -0.04571849      -0.01659602
C        7.01096231       7.57195878       3.82751971       65       0.11245330      -0.08776188      -0.00586985
C       -0.76706135       4.93612152       5.47740885       66      -0.01781952       0.00003031       0.04040572
C        5.13207670       1.61840440       5.31042614       67      -0.07262921      -0.00985740       0.04069673
C       -1.36884656       6.65404900       8.29480856       68      -0.01267339      -0.07224476       0.01115406
C        5.73492575      -0.09947468       2.49539241       69      -0.00599797       0.06552601      -0.03794537
C       -1.28109528       3.76722709       6.03687267       70       0.02902362      -0.01871775       0.01440884
C        5.64360411       2.78683240       4.75164805       71       0.07230696       0.02606964      -0.08736096
C       -3.73190987       5.59581862       9.99749815       72       0.01804606      -0.04521365       0.04196322
C        8.09673870       0.96057204       0.79068913       73      -0.01736803      -0.07006319       0.04108745
C       -0.71520414       5.51570305       8.99557696       74      -0.02487865      -0.05302799       0.04334614
C        5.08185673       1.03729801       1.79283867       75       0.00390035       0.17590892      -0.00045352
C        1.78888386       1.26422263       0.54639642       76      -0.01863460       0.05842969      -0.00748807
C        2.57504115       5.29204009      10.24294927       77       0.03635710      -0.11683729      -0.09062599
C       -3.69099051       2.99585449       9.55827792       78       0.06647712      -0.07346392      -0.07781515
C        8.05466463       3.55915197       1.23066126       79       0.02830008       0.01968989       0.10667945
N        0.73627920       8.94465478       1.43254527       80       0.03756712       0.03181686       0.02717349
N        3.62976140      -2.39040679       9.35743693       81      -0.05547186      -0.03168438      -0.04169872
N        0.70062545       7.68571743       0.90864608       82      -0.01443851      -0.08401525       0.10725585
N        3.66459467      -1.13183894       9.88094376       83       0.01825811       0.10495582      -0.10890973
N        0.65814318      -2.41955439       7.66621915       84       0.09765643      -0.07204512       0.00687090
N        3.70575114       8.97436541       3.12108077       85      -0.04166198       0.03240601       0.03534854
N       -0.20699267      -1.51353177       7.14162309       86       0.05904034       0.02770530       0.03858840
N        4.57105701       8.06757938       3.64763932       87      -0.08005986      -0.03716443      -0.05218051
O        0.75389803       7.20611967       4.67390958       88      -0.02325401      -0.13684916      -0.01140118
O        3.61168095      -0.65089952       6.11568307       89       0.01611845       0.06965943      -0.00422683
O        2.08047282       1.17401407       3.80482210       90       0.03978835      -0.00358646      -0.03770638
O        2.28404524       5.37625603       6.98570735       91      -0.04524243       0.06450232       0.02706438
O        1.46230014       6.04125418       2.87458742       92       0.09822996      -0.01373567       0.10474742
O        2.90189047       0.51179223       7.91627562       93      -0.09640607       0.00164141      -0.13856816
O        0.58608928       0.07933327       5.06407962       94      -0.03069389       0.08448207      -0.19341905
O        3.77800621       6.47574244       5.72662167       95       0.01759034      -0.05263112       0.19493301
96
Lattice="9.74899473 0.0 0.0 -1.2898868463908422 10.008606193288509 0.0 -4.091543722305528 -3.454896167994655 10.793024609936062" Properties=species:S:1:pos:R:3:spacegroup_kinds:I:1:forces:R:3 spacegroup="P 1" unit_cell=conventional occupancy="_JSON {\"0\": {\"Cd\": 1}, \"1\": {\"Cd\": 1}, \"2\": {\"H\": 1}, \"3\": {\"H\": 1}, \"4\": {\"H\": 1}, \"5\": {\"H\": 1}, \"6\": {\"H\": 1}, \"7\": {\"H\": 1}, \"8\": {\"H\": 1}, \"9\": {\"H\": 1}, \"10\": {\"H\": 1}, \"11\": {\"H\": 1}, \"12\": {\"H\": 1}, \"13\": {\"H\": 1}, \"14\": {\"H\": 1}, \"15\": {\"H\": 1}, \"16\": {\"H\": 1}, \"17\": {\"H\": 1}, \"18\": {\"H\": 1}, \"19\": {\"H\": 1}, \"20\": {\"H\": 1}, \"21\": {\"H\": 1}, \"22\": {\"H\": 1}, \"23\": {\"H\": 1}, \"24\": {\"H\": 1}, \"25\": {\"H\": 1}, \"26\": {\"H\": 1}, \"27\": {\"H\": 1}, \"28\": {\"H\": 1}, \"29\": {\"H\": 1}, \"30\": {\"H\": 1}, \"31\": {\"H\": 1}, \"32\": {\"H\": 1}, \"33\": {\"H\": 1}, \"34\": {\"H\": 1}, \"35\": {\"H\": 1}, \"36\": {\"H\": 1}, \"37\": {\"H\": 1}, \"38\": {\"H\": 1}, \"39\": {\"H\": 1}, \"40\": {\"H\": 1}, \"41\": {\"H\": 1}, \"42\": {\"C\": 1}, \"43\": {\"C\": 1}, \"44\": {\"C\": 1}, \"45\": {\"C\": 1}, \"46\": {\"C\": 1}, \"47\": {\"C\": 1}, \"48\": {\"C\": 1}, \"49\": {\"C\": 1}, \"50\": {\"C\": 1}, \"51\": {\"C\": 1}, \"52\": {\"C\": 1}, \"53\": {\"C\": 1}, \"54\": {\"C\": 1}, \"55\": {\"C\": 1}, \"56\": {\"C\": 1}, \"57\": {\"C\": 1}, \"58\": {\"C\": 1}, \"59\": {\"C\": 1}, \"60\": {\"C\": 1}, \"61\": {\"C\": 1}, \"62\": {\"C\": 1}, \"63\": {\"C\": 1}, \"64\": {\"C\": 1}, \"65\": {\"C\": 1}, \"66\": {\"C\": 1}, \"67\": {\"C\": 1}, \"68\": {\"C\": 1}, \"69\": {\"C\": 1}, \"70\": {\"C\": 1}, \"71\": {\"C\": 1}, \"72\": {\"C\": 1}, \"73\": {\"C\": 1}, \"74\": {\"C\": 1}, \"75\": {\"C\": 1}, \"76\": {\"C\": 1}, \"77\": {\"C\": 1}, \"78\": {\"C\": 1}, \"79\": {\"C\": 1}, \"80\": {\"N\": 1}, \"81\": {\"N\": 1}, \"82\": {\"N\": 1}, \"83\": {\"N\": 1}, \"84\": {\"N\": 1}, \"85\": {\"N\": 1}, \"86\": {\"N\": 1}, \"87\": {\"N\": 1}, \"88\": {\"O\": 1}, \"89\": {\"O\": 1}, \"90\": {\"O\": 1}, \"91\": {\"O\": 1}, \"92\": {\"O\": 1}, \"93\": {\"O\": 1}, \"94\": {\"O\": 1}, \"95\": {\"O\": 1}}" energy=-620.6961669921875 free_energy=-620.6961669921875 stress="0.0018732892349362373 -0.0015398712130263448 0.0011515086516737938 -0.0015398712130263448 -0.0068572708405554295 0.0035870338324457407 0.0011515086516737938 0.0035870338324457407 -0.0016610394231975079" pbc="T T T"
Cd       2.79911395      -0.93556483       3.65178568        0       0.06676908       0.19625919      -0.38678288
Cd       1.56736135       7.48991129       7.14088728        1      -0.08295194      -0.19713916       0.36398685
H        0.95461916       6.90223644       1.53765344        2      -0.04552965      -0.29140756      -0.01199734
H        3.40115411      -0.34983108       9.24792824        3       0.08280414       0.26691222       0.05680403
H        1.72407449       3.58179427       3.58535054        4      -0.02701423       0.00936784       0.03439593
H        2.63888720       2.97007268       7.20058770        5       0.00251849       0.00445855      -0.00559127