116
Lattice="6.44202492 0.0 0.0 0.0 12.51845213 0.0 0.0 -0.9125813921149646 16.749758218039013" Properties=species:S:1:pos:R:3:spacegroup_kinds:I:1:forces:R:3 spacegroup="P 1" unit_cell=conventional occupancy="_JSON {\"0\": {\"Cu\": 1}, \"1\": {\"Cu\": 1}, \"2\": {\"Cu\": 1}, \"3\": {\"Cu\": 1}, \"4\": {\"H\": 1}, \"5\": {\"H\": 1}, \"6\": {\"H\": 1}, \"7\": {\"H\": 1}, \"8\": {\"H\": 1}, \"9\": {\"H\": 1}, \"10\": {\"H\": 1}, \"11\": {\"H\": 1}, \"12\": {\"H\": 1}, \"13\": {\"H\": 1}, \"14\": {\"H\": 1}, \"15\": {\"H\": 1}, \"16\": {\"H\": 1}, \"17\": {\"H\": 1}, \"18\": {\"H\": 1}, \"19\": {\"H\": 1}, \"20\": {\"H\": 1}, \"21\": {\"H\": 1}, \"22\": {\"H\": 1}, \"23\": {\"H\": 1}, \"24\": {\"H\": 1}, \"25\": {\"H\": 1}, \"26\": {\"H\": 1}, \"27\": {\"H\": 1}, \"28\": {\"H\": 1}, \"29\": {\"H\": 1}, \"30\": {\"H\": 1}, \"31\": {\"H\": 1}, \"32\": {\"H\": 1}, \"33\": {\"H\": 1}, \"34\": {\"H\": 1}, \"35\": {\"H\": 1}, \"36\": {\"H\": 1}, \"37\": {\"H\": 1}, \"38\": {\"H\": 1}, \"39\": {\"H\": 1}, \"40\": {\"H\": 1}, \"41\": {\"H\": 1}, \"42\": {\"H\": 1}, \"43\": {\"H\": 1}, \"44\": {\"H\": 1}, \"45\": {\"H\": 1}, \"46\": {\"H\": 1}, \"47\": {\"H\": 1}, \"48\": {\"H\": 1}, \"49\": {\"H\": 1}, \"50\": {\"H\": 1}, \"51\": {\"H\": 1}, \"52\": {\"C\": 1}, \"53\": {\"C\": 1}, \"54\": {\"C\": 1}, \"55\": {\"C\": 1}, \"56\": {\"C\": 1}, \"57\": {\"C\": 1}, \"58\": {\"C\": 1}, \"59\": {\"C\": 1}, \"60\": {\"C\": 1}, \"61\": {\"C\": 1}, \"62\": {\"C\": 1}, \"63\": {\"C\": 1}, \"64\": {\"C\": 1}, \"65\": {\"C\": 1}, \"66\": {\"C\": 1}, \"67\": {\"C\": 1}, \"68\": {\"C\": 1}, \"69\": {\"C\": 1}, \"70\": {\"C\": 1}, \"71\": {\"C\": 1}, \"72\": {\"C\": 1}, \"73\": {\"C\": 1}, \"74\": {\"C\": 1}, \"75\": {\"C\": 1}, \"76\": {\"C\": 1}, \"77\": {\"C\": 1}, \"78\": {\"C\": 1}, \"79\": {\"C\": 1}, \"80\": {\"C\": 1}, \"81\": {\"C\": 1}, \"82\": {\"C\": 1}, \"83\": {\"C\": 1}, \"84\": {\"C\": 1}, \"85\": {\"C\": 1}, \"86\": {\"C\": 1}, \"87\": {\"C\": 1}, \"88\": {\"C\": 1}, \"89\": {\"C\": 1}, \"90\": {\"C\": 1}, \"91\": {\"C\": 1}, \"92\": {\"C\": 1}, \"93\": {\"C\": 1}, \"94\": {\"C\": 1}, \"95\": {\"C\": 1}, \"96\": {\"C\": 1}, \"97\": {\"C\": 1}, \"98\": {\"C\": 1}, \"99\": {\"C\": 1}, \"100\": {\"C\": 1}, \"101\": {\"C\": 1}, \"102\": {\"C\": 1}, \"103\": {\"C\": 1}, \"104\": {\"S\": 1}, \"105\": {\"S\": 1}, \"106\": {\"S\": 1}, \"107\": {\"S\": 1}, \"108\": {\"S\": 1}, \"109\": {\"S\": 1}, \"110\": {\"S\": 1}, \"111\": {\"S\": 1}, \"112\": {\"Br\": 1}, \"113\": {\"Br\": 1}, \"114\": {\"Br\": 1}, \"115\": {\"Br\": 1}}" energy=-707.710693359375 free_energy=-707.710693359375 stress="-0.00019730787607841194 -4.138968961342471e-06 -0.0007070412393659353 -4.138968961342471e-06 -0.002974119270220399 0.001920959446579218 -0.0007070412393659353 0.001920959446579218 0.0022802904713898897" pbc="T T T"
Cu       3.56788781       6.05141649       7.48647279        0       0.24192157      -0.36794978      -0.12143783
Cu       2.86628376      -0.65756907      15.81696442        1      -0.08452260      -0.55783856      -0.00375464
Cu       3.66290654       3.22885356       7.26407120        2      -0.01618440       0.42875624      -0.07118862
Cu       2.76837353       9.02067320      15.62682764        3      -0.12039315       0.47858804       0.02043985
H        0.08901943       6.59588135       5.00249623        4      -0.26167434      -0.27449179       0.10863563
H        6.37754903      -0.13668413      13.37795976        5       0.22117285      -0.30371344       0.06576765
H        6.37184837       7.47398728       2.69554254        6      -0.01557462       0.10031941       0.16442455
H        0.07647622       0.76945428      11.08703693        7      -0.26224855       0.12628651       0.25553423
H        1.32740869       9.43294308       2.01191071        8       0.06645399      -0.30184677       0.53235364
H        5.10819124       2.74487671      10.37744838        9      -0.16812265      -0.69507301       0.99781334
H        2.93879964      10.44612615       3.62270652       10      -0.36224213      -0.53876334       0.29915923
H        3.48012899       3.69358740      12.02407556       11       0.24572186      -0.23811957       0.18932775
H        3.12894427       9.48708891       5.94936619       12      -0.03922194      -0.03399450      -0.18709570
H        3.31525271       2.75296439      14.27593217       13      -0.66093266       0.41058734       0.76574111
H        0.43942791       9.64362236       8.93965183       14       1.10975468       0.53747863      -1.36596227
H        5.97976895       3.81581145       0.52887716       15       0.33126760       0.02203324       0.59179944
H        0.47778913      10.66633933      11.19461510       16       0.28412345       0.37181395      -0.04490563
H        5.95751054       4.89952891       2.79392463       17       0.68989450      -0.67473990      -0.14489026
H        5.27633632       9.92226199      12.93020989       18       0.08375441       0.05818539      -0.08488476
H        1.15302893       4.08968036       4.52120570       19      -0.00142552      -0.06248369      -0.26389456
H        3.77797543       7.95589744      12.44598025       20       0.19388494       0.19827288      -0.29132256
H        2.61723220       2.16074924       4.03724469       21       0.31945202      -0.08187541       0.18584941
H        3.88002585       6.89198321      10.16688011       22      -0.84667259      -1.03174567      -0.00883514
H        2.59196563       1.09336812       1.81764187       23       0.22380918      -0.53607166      -0.21649876
H        2.08248771       1.97836080       9.79247570       24      -0.28426141       1.59265745       0.39676011
H        4.35495744       8.69920105       1.41142591       25       0.03694257       0.48801503       0.34291750
H        2.65927805       0.26044097      11.44435846       26       0.08336838       0.20026606       0.64089268
H        3.76776925       6.97520197       3.12552090       27       0.09639913      -0.23717910      -0.65429133
H        3.19982212      10.45029863      10.72419699       28       0.07938460      -0.05896676       0.20627192
H        3.26178292       4.67315064       2.37902897       29      -0.13710055      -0.58839428       0.32369632
H        3.02880577       9.89165940       8.31507192       30       0.02948471      -0.05842704      -0.05017702
H        3.43083079       3.15801302      16.66933805       31      -0.02605182      -0.09227110      -0.00141336
H        2.33241509      11.62086622       6.66124372       32      -0.09339532      -0.17923066      -1.08877230
H        4.11418200       4.91352230      15.02525941       33      -0.08038932      -0.27433556      -0.74167544
H        5.75541919      11.49253996       7.49025506       34       0.14870971      -0.41800994       1.38375878
H        0.69072629       4.77562589      15.90192940       35       0.07724355       0.10775881      -0.72043133
H        5.76344405       9.88754123       5.57129941       36       0.16287622      -0.27173689       0.25641826
H        0.68676180       3.19351923      13.94659951       37      -0.18016909      -0.88236952       0.26701370
H        5.48445157      10.77772742       3.24660579       38      -0.01863184      -0.46049133      -0.30635503
H        0.96808326       4.03739081      11.62857029       39      -0.05906163      -0.44835204      -0.63836372
H        5.16815830       0.70459350       2.89816013       40      -0.15084034       0.45030180      -1.58393288
H        1.26272286       6.49872820      11.27232994       41      -0.09995656      -0.19143561       0.14416966
H        5.09550825       2.26153672       4.83500952       42       0.00200356       0.23490854      -0.17798784
H        1.30492778       8.05525617      13.20503819       43       0.07263248      -0.47802290      -0.22375277
H        0.51846125       5.96877652       8.60484837       44      -0.27508554       0.35352048      -0.74896264
H        5.92476556       0.21399869       0.20357510       45      -0.02203355      -0.54870760       0.85048008
H        0.15397127       5.75538723       6.85579063       46      -0.11471301      -0.15273163      -0.17500582
H        6.32403297      11.59587759      15.23055879       47      -0.42334181       0.04591709       0.29578778
H        0.24708736       3.44900937       6.55172971       48      -0.17339683       0.75648892      -0.42744076
H        6.15405827       9.26318804      14.94904106       49       0.26220024       0.33115178      -0.16555707
H        0.64878685       3.32975580       8.29859743       50       0.18965924       0.28947803      -0.08211733
H        5.78533291       9.14806438      16.65606363       51      -0.17095478       0.16846582       0.29201478
C        1.60628082       7.96666800       5.59589762       52       1.02550614       1.25501740       0.89733648
C        4.81844858       1.25661667      14.01849132       53       0.91134775      -0.17674702      -0.71431375
C        0.69307566       7.44602770       4.72601358       54      -0.42327702      -0.50067484      -0.90902239
C        5.75012944       0.69118170      13.09191480       55      -1.04980779       0.61020696       0.56834406
C        0.59416222       7.95594176       3.42085893       56      -0.20125942      -0.35806596      -0.01802386
C        5.80854021       1.21546407      11.80702616       57       0.70862770      -0.35405532      -0.61185706
C        1.38111568       9.01551973       3.03647389       58       0.87778610       1.07908773      -0.20552514
C        5.01750277       2.28411298      11.40326368       59      -0.24598022       1.07835698      -0.52117980
C        2.31971085       9.58499744       3.95980123       60      -0.42387015       0.57409322      -1.76232266
C        4.12285939       2.85321315      12.33024443       61       0.15303536      -0.01291132      -0.58120930
C        2.42750822       9.07982754       5.21615547       62      -0.04722964      -0.82367229       0.96829075
C        4.03686924       2.34124335      13.61954397       63       0.03947505      -0.13337705      -0.91832751
C        5.35877916       8.17882864       9.41948455       64       0.71264517       1.29016209       0.73983002
C        1.06481545       2.42271745       1.02013978       65       1.01202917      -0.87838471       0.32857177
C        6.24463780       9.29084098       9.68116131       66      -1.79967451      -1.55688977       1.52716041
C        0.22744300       3.49052111       1.33786873       67      -0.93953931      -0.26511791      -2.43828344
C        6.24078794       9.86714941      10.94743891       68      -1.08288777      -0.56496090       0.83093083
C        0.24007752       4.07193586       2.56657026       69      -0.82422519       1.18421853       1.12106752
C        5.32111779       9.43231994      11.95603505       70       0.14705962      -0.67373556      -1.07749677
C        1.12721124       3.60922294       3.53126088       71      -0.06436871       0.55202079       0.94425154
C        4.45968871       8.34347436      11.67163814       72       0.37890562       0.24193613       0.27910951
C        1.97858432       2.55528014       3.26198130       73      -0.29067382      -0.74377501      -0.65575725
C        4.49963690       7.70294966      10.42225195       74       0.95125824       1.40301442       0.09419112
C        1.92332912       1.90647203       2.00944431       75      -0.16299884       1.22801900       0.47412914
C        2.17731503       0.63982206       8.13635552       76      -0.56157815       0.86066592      -1.12802851
C        4.25904019       6.46721141      16.51527917       77      -0.25854599      -1.44570255      -0.51412416
C        2.23005006       0.99943159       9.46744182       78       0.73504525      -2.42173958       0.85125589
C        4.18535877       7.68040433       1.12205485       79       0.17145075      -0.14202709      -0.48688745
C        2.59527051       0.00524239      10.40519962       80      -0.09983943      -0.20873892      -0.76187027
C        3.86704291       6.69341215       2.05164675       81      -0.40199178      -0.16676775       0.79324484
C        2.90667729      11.20499402      10.00692635       82      -0.48928064       1.06345284      -0.64182681
C        3.57111601       5.38927479       1.64809413       83       0.47902200       0.92785066      -1.80441260
C        2.80767556      10.90462388       8.64510059       84      -0.31344864       0.18083112      -0.52280104
C        3.65541358       5.08600746       0.23826211       85      -0.44828820      -0.81654829       1.98600543
C        2.40746293      11.87581641       7.68327402       86       0.78548312      -1.37682343       2.24539661
C        3.98184973       5.11767322      16.06343267       87       0.70570254       2.12321210       0.82329589
C        5.39444120       0.68132003       6.25380483       88       0.16143435       0.88157606       0.47483271
C        1.04342791       6.48410452      14.66841434       89      -0.02773773       1.06928957      -1.29018831
C        5.59356061      11.84522288       6.51525489       90       0.07156394      -0.16471222      -1.98621559
C        0.84007771       5.14925041      14.86335808       91      -0.35229877      -2.27953792       0.25869235
C        5.65185685      10.95230988       5.42883918       92      -0.80541754       1.09146965      -1.31932235
C        0.80347640       4.23376109      13.75876554       93       0.38439545       1.64579010       0.50870597
C        5.44607327      11.43821936       4.09259178       94       0.51304817       0.94220674       1.44294429
C        0.96579593       4.70974181      12.45629888       95      -0.16863725       0.23847918       1.32655537
C        5.29864214       0.31245196       3.85940496       96      -0.09893417      -0.91671526       2.31621647
C        1.12394197       6.08344731      12.28221107       97       0.52811182       0.43914396      -1.26400483
C        5.24946529       1.19865847       4.95355477       98       0.07898296      -1.02819991       0.13659328
C        1.20264592       6.96488668      13.32959723       99      -0.31878677       0.56062835       1.51308906
C        0.32040752       6.49031624       7.63051458      100       0.76084864       0.17483526       1.29719758
C        6.08226499      -0.20155307      16.02870675      101       0.49271983       0.34135482      -0.95671809
C        0.45097132       2.79979563       7.37192766      102       0.22215565      -1.35966480       0.36660996
C        5.95963336       8.57351543      15.75935821      103       0.26231107      -0.44431001      -0.16838051
S        1.85357286       7.44516152       7.26603422      104      -0.87715644      -0.18251383       0.05247615
S        4.58893553       0.73785422      15.66740913      105       0.51510370      -0.07089572       0.31828448
S        5.28175831       7.55786550       7.79390473      106       0.04563111      -0.43634337      -0.85727096
S        1.18895893       0.79816864      16.13108482      107      -0.77337253       0.54546416       0.17264327
S        5.38349643       1.80121850       7.69796738      108       0.25393707      -0.48051220      -0.72891551
S        1.04348720       7.57397474      16.05712413      109      -0.19522764       0.16959867       0.09828520
S        1.93726495       1.82260676       6.83292481      110      -0.53004616       0.50971162       0.14123908
S        4.49975284       7.65435549      15.23467730      111       0.06973431      -0.17506176       0.04678792
Br       4.22020256       4.82416456       5.42421859      112      -0.02188888       0.04365002       0.12703741
Br       2.17528106      10.60444926      13.83314455      113       0.02919851       0.06508316       0.00725849
Br       2.97306557       4.54760364       9.29153459      114       0.03225638       0.03186612      -0.05321571
Br       3.43318368      11.26948888       0.94313697      115      -0.02105924       0.04500610      -0.16647962
116
Lattice="6.44202492 0.0 0.0 0.0 12.51845213 0.0 0.0 -0.9125813921149646 16.749758218039013" Properties=species:S:1:pos:R:3:spacegroup_kinds:I:1:forces:R:3 spacegroup="P 1" unit_cell=conventional occupancy="_JSON {\"0\": {\"Cu\": 1}, \"1\": {\"Cu\": 1}, \"2\": {\"Cu\": 1}, \"3\": {\"Cu\": 1}, \"4\": {\"H\": 1}, \"5\": {\"H\": 1}, \"6\": {\"H\": 1}, \"7\": {\"H\": 1}, \"8\": {\"H\": 1}, \"9\": {\"H\": 1}, \"10\": {\"H\": 1}, \"11\": {\"H\": 1}, \"12\": {\"H\": 1}, \"13\": {\"H\": 1}, \"14\": {\"H\": 1}, \"15\": {\"H\": 1}, \"16\": {\"H\": 1}, \"17\": {\"H\": 1}, \"18\": {\"H\": 1}, \"19\": {\"H\": 1}, \"20\": {\"H\": 1}, \"21\": {\"H\": 1}, \"22\": {\"H\": 1}, \"23\": {\"H\": 1}, \"24\": {\"H\": 1}, \"25\": {\"H\": 1}, \"26\": {\"H\": 1}, \"27\": {\"H\": 1}, \"28\": {\"H\": 1}, \"29\": {\"H\": 1}, \"30\": {\"H\": 1}, \"31\": {\"H\": 1}, \"32\": {\"H\": 1}, \"33\": {\"H\": 1}, \"34\": {\"H\": 1}, \"35\": {\"H\": 1}, \"36\": {\"H\": 1}, \"37\": {\"H\": 1}, \"38\": {\"H\": 1}, \"39\": {\"H\": 1}, \"40\": {\"H\": 1}, \"41\": {\"H\": 1}, \"42\": {\"H\": 1}, \"43\": {\"H\": 1}, \"44\": {\"H\": 1}, \"45\": {\"H\": 1}, \"46\": {\"H\": 1}, \"47\": {\"H\": 1}, \"48\": {\"H\": 1}, \"49\": {\"H\": 1}, \"50\": {\"H\": 1}, \"51\": {\"H\": 1}, \"52\": {\"C\": 1}, \"53\": {\"C\": 1}, \"54\": {\"C\": 1}, \"55\": {\"C\": 1}, \"56\": {\"C\": 1}, \"57\": {\"C\": 1}, \"58\": {\"C\": 1}, \"59\": {\"C\": 1}, \"60\": {\"C\": 1}, \"61\": {\"C\": 1}, \"62\": {\"C\": 1}, \"63\": {\"C\": 1}, \"64\": {\"C\": 1}, \"65\": {\"C\": 1}, \"66\": {\"C\": 1}, \"67\": {\"C\": 1}, \"68\": {\"C\": 1}, \"69\": {\"C\": 1}, \"70\": {\"C\": 1}, \"71\": {\"C\": 1}, \"72\": {\"C\": 1}, \"73\": {\"C\": 1}, \"74\": {\"C\": 1}, \"75\": {\"C\": 1}, \"76\": {\"C\": 1}, \"77\": {\"C\": 1}, \"78\": {\"C\": 1}, \"79\": {\"C\": 1}, \"80\": {\"C\": 1}, \"81\": {\"C\": 1}, \"82\": {\"C\": 1}, \"83\": {\"C\": 1}, \"84\": {\"C\": 1}, \"85\": {\"C\": 1}, \"86\": {\"C\": 1}, \"87\": {\"C\": 1}, \"88\": {\"C\": 1}, \"89\": {\"C\": 1}, \"90\": {\"C\": 1}, \"91\": {\"C\": 1}, \"92\": {\"C\": 1}, \"93\": {\"C\": 1}, \"94\": {\"C\": 1}, \"95\": {\"C\": 1}, \"96\": {\"C\": 1}, \"97\": {\"C\": 1}, \"98\": {\"C\": 1}, \"99\": {\"C\": 1}, \"100\": {\"C\": 1}, \"101\": {\"C\": 1}, \"102\": {\"C\": 1}, \"103\": {\"C\": 1}, \"104\": {\"S\": 1}, \"105\": {\"S\": 1}, \"106\": {\"S\": 1}, \"107\": {\"S\": 1}, \"108\": {\"S\": 1}, \"109\": {\"S\": 1}, \"110\": {\"S\": 1}, \"111\": {\"S\": 1}, \"112\": {\"Br\": 1}, \"113\": {\"Br\": 1}, \"114\": {\"Br\": 1}, \"115\": {\"Br\": 1}}" energy=-706.104248046875 free_energy=-706.104248046875 stress="-0.0016520433127880096 0.000915347074624151 -0.0034227322321385145 0.000915347074624151 -0.002009608317166567 0.004236108157783747 -0.0034227322321385145 0.004236108157783747 -0.002817111788317561" pbc="T T T"
Cu       3.55243048       6.06085531       7.51022157        0       0.29045975      -0.29968706      -0.23786595
Cu       2.87046726      -0.66804838      15.84139285        1      -0.07558034      -0.66054666      -0.13059931
Cu       3.65112011       3.19988132       7.24467584        2       0.09071577       0.72781247      -0.04283620
Cu       2.75045847       8.99108130      15.61528864        3      -0.03993487       0.46338034       0.01001301
H        0.06885065       6.60160619       4.99379640        4      -0.76040280      -1.06173646       0.33256739
H        6.35153491      -0.15841840      13.38996834        5      -0.04239061       0.28020570      -0.40308711
H        6.37353646       7.46668343       2.71732818        6      -0.63462007      -0.22380701      -0.76251006
H        0.05434787       0.76639536      11.10549734        7       0.40501690      -0.22182357      -0.61704856
H        1.30279542       9.44535022       1.98587566        8       0.32597598      -0.58750570       1.71258712
H        5.11216383       2.74238048      10.38175271        9      -0.37222296      -0.72476518       0.96838045
H        2.95532172      10.44573440       3.60379416       10       0.01125790      -0.08536905       0.23593852
H        3.46589960       3.69898399      12.04845207       11       0.16932794      -0.04390779       0.13678537
H        3.11279613       9.51300292       5.96529610       12      -0.52670270      -0.45413154      -0.67350537
H        3.32615787       2.77788525      14.28685622       13      -0.27129871       0.10818766       0.63013136
H        0.43338139       9.63804241       8.91424096       14       0.12735978      -0.07817378      -0.06886511
H        6.00823418       3.81518893       0.55795436       15      -0.12049083       0.24431893      -0.05389946
H        0.46241402      10.65765027      11.19033453       16       1.27821147       1.43831253       0.11439662
H        5.97854519       4.87282008       2.78033202       17      -0.46064681       0.54023707       0.18278213
H        5.28174423       9.90069241      12.90987348       18      -0.00102441       0.90352333       1.52956533
H        1.16363018       4.07506869       4.50379598       19      -0.16881117       0.41223663       0.35247308
H        3.80354982       7.95306083      12.41690443       20      -0.79454648      -0.36226371       0.86831182
H        2.59505307       2.16781637       4.03128036       21       1.09936476      -0.53832948       1.20097148
H        3.85415524       6.91386970      10.18991665       22      -1.10739875      -1.46994638      -0.28901374
H        2.61479340       1.12074265       1.80166442       23      -0.14851271      -0.27052623      -0.17915514
H        2.06547711       2.00416126       9.77596678       24      -0.03727172       0.17244619      -0.12476490
H        4.37162068       8.72138660       1.38409539       25      -0.11166131      -0.46875343       0.24969397
H        2.68135035       0.28901134      11.42054199       26       0.20963977       0.70212257       2.62798786
H        3.77696309       6.99385413       3.10315869       27       0.02608922      -0.25865144      -0.11425032
H        3.19988619      10.45214349      10.70681171       28       0.26670441      -0.36233011       0.57838333
H        3.25375085       4.68807646       2.40016712       29       0.21033707      -0.05953827      -0.41198274
H        3.02437211       9.91721509       8.31523521       30       0.45008862      -1.93255436      -0.57401699
H        3.42132989       3.18223194      16.64363679       31       0.02792824      -0.11919959       0.28011638
H        2.32409742      11.64587046       6.67745234       32      -0.21903582      -0.69694048      -2.95624089
H        4.10379268       4.91085267      15.04233033       33      -0.14072911      -0.33375022      -0.99274218
H        5.73279704      11.51705567       7.46491801       34       0.56931329      -1.46775436       4.15634489
H        0.71798184       4.75349710      15.90264558       35      -0.07318650       0.23831245      -0.49409547
H        5.78250678       9.86780328       5.56697536       36      -0.01404928       0.34113020       0.28284237
H        0.70909545       3.21427231      13.94890795       37      -0.17432132      -1.13549709       0.35257447
H        5.50106899      10.78359515       3.24974708       38       0.01312752      -0.73852015      -0.27479392
H        0.96527032       4.00860743      11.61191940       39       0.01832882       0.29453105       0.52423346
H        5.18237423       0.69416856       2.88951113       40      -0.09665659       0.29242742      -1.70160699
H        1.27588027       6.51031547      11.29045475       41       0.01129171       0.04395877      -0.86400700
H        5.07035869       2.24038485       4.86391540       42      -0.13727225       1.42281008      -0.63695228
H        1.29827642       8.05279103      13.21638654       43       0.19619957       0.27735317      -0.25724900
H        0.51096544       5.95552027       8.57473708       44      -0.14766157       0.53267884      -0.69813335
H        5.93915827       0.24043823       0.21553523       45      -0.06772591      -0.78095043       1.23864138
H        0.16597830       5.73633527       6.88085096       46      -0.20428976      -0.40462190      -0.75683856
H        6.30650962      11.58239129      15.24951435       47      -0.36774200       0.30301005       0.51767433
H        0.21903205       3.46870618       6.54779035       48      -0.14584389       0.85299098      -0.56890482
H        6.16233159       9.24517206      14.92990582       49       0.43301320       0.51479340      -0.39161259
H        0.62773018       3.33573250       8.30587236       50       0.17135847       0.29432648      -0.28197253
H        5.78937110       9.17617778      16.65685724       51       0.00841004      -0.30654174      -0.45964131
C        1.57684630       7.98157141       5.60469531       52       0.58105230       0.97442877      -0.51639038
C        4.84576547       1.24261605      14.03358481       53       0.18237901       0.47384331      -0.93815148
C        0.66340975       7.41985863       4.70089074       54       0.91896737       0.78919572       0.22256467
C        5.73887194       0.69858283      13.06626296       55      -0.38700718      -0.44540006       1.50232530
C        0.57127183       7.93691213       3.42212076       56       1.61113119       1.60120893       0.26549810
C        5.80149994       1.22036907      11.78138996       57      -0.00004885      -0.39084810       0.56559479
C        1.40447315       9.04265664       3.06551934       58      -0.82087719      -0.13502520      -1.96284699
C        4.98827708       2.26230553      11.39736542       59      -0.33984849       2.08386230      -0.59909749
C        2.34791457       9.60629424       3.94915456       60      -1.04389036      -0.20577030      -1.27364075
C        4.11979153       2.87507683      12.34657507       61       0.66019797      -1.13329148      -0.40350878
C        2.41040532       9.07971067       5.20510477       62       0.55457449      -0.37264287       1.94471180
C        4.06090207       2.33867083      13.64133872       63      -0.31870326       0.38024989      -1.04409587
C        5.36615415       8.20505358       9.40040772       64      -0.83127367      -0.49552673       1.51951575
C        1.07030192       2.44763336       1.00453831       65       1.61623025      -1.83739734       0.13599731
C        6.23199817       9.26377723       9.70857686       66       0.50494504       0.11593280      -1.19041359
C        0.25747748       3.48360318       1.32816598       67      -1.84184694       1.27718115      -0.66004366
C        6.26799079       9.88076592      10.92397822       68      -3.40546322      -1.98041105       2.77298212
C        0.22180404       4.07526726       2.59343082       69      -0.15791182      -0.26162103      -1.52769446
C        5.30824554       9.43994369      11.97553875       70       1.06956053      -1.43462086      -3.72389388
C        1.10094445       3.63377460       3.52045128       71       1.47823572      -0.89939141       1.87820446
C        4.46182876       8.33421240      11.68486896       72       1.48562598       1.00964010      -1.25878370
C        1.97673473       2.56140718       3.29069001       73      -1.87432909      -0.20225486      -3.45329475
C        4.48763549       7.70441394      10.41472589       74       1.81810749       2.39558506       0.16882277
C        1.90601397       1.91776454       1.99120403       75       0.92024046       1.18331409       2.19656324
C        2.16289599       0.64259029       8.12433609       76      -0.31915322      -0.03587512      -1.46831989
C        4.27867248       6.45069802      16.54288997       77      -0.43811047      -1.41528821      -2.08835411
C        2.23278473       0.98557683       9.44358181       78       0.61908388      -0.60707986       2.67257071
C        4.20152149       7.66308233       1.12172922       79       0.48515406       1.43021226       0.24437448
C        2.62237678       0.03323080      10.43383072       80      -0.36331016      -1.61137271      -4.26652384
C        3.88554818       6.68831176       2.05498762       81      -0.31814206       0.08921050       0.51802146
C        2.92597866      11.20657222      10.00189692       82      -0.63999796       1.86096501      -0.56065857
C        3.59990866       5.39931196       1.63802576       83      -0.10923684      -0.11357321      -0.14278531
C        2.83272175      10.88027632       8.64399142       84      -1.31767201       3.27224636      -0.49114212
C        3.67529836       5.09447465       0.25168629       85      -0.91043025      -1.82953167       1.52584362
C        2.39542920      11.87537525       7.66105306       86       1.26081657      -1.33913445       4.88421345
C        3.95413164       5.10687537      16.07281279       87       1.42946935       3.15220833       0.61702329
C        5.36668409       0.71067500       6.27569087       88       0.70580876      -0.83085674      -0.73321837
C        1.01417147       6.49660830      14.66095174       89       0.19556001       0.75845158      -0.36227179
C        5.60184151      11.82936584       6.53680138       90      -0.92172861       2.40213346      -5.10178852
C        0.82387399       5.16046559      14.88021395       91      -0.00566046      -2.46987295      -0.62787372
C        5.63297752      10.94994530       5.44039142       92      -0.14868236       0.15202901      -0.64404941
C        0.82763290       4.24832519      13.76196276       93       0.06141656       1.40320969       1.77913439
C        5.47153797      11.41746114       4.11215469       94       0.16693772       1.56205285       0.61893338
C        0.98685313       4.69781608      12.48058495       95      -0.07825592       0.47308058      -1.35023510
C        5.32766007       0.28435093       3.84016604       96      -0.12143008       0.03792047       3.29168868