64
Lattice="7.02612563 0.0 0.0 2.438973731191458 9.844849394685873 0.0 2.439021147433653 1.2624938752646402 9.76356345850321" Properties=species:S:1:pos:R:3:spacegroup_kinds:I:1:forces:R:3 spacegroup="P 1" unit_cell=conventional occupancy="_JSON {\"0\": {\"Cd\": 1}, \"1\": {\"Cd\": 1}, \"2\": {\"H\": 1}, \"3\": {\"H\": 1}, \"4\": {\"H\": 1}, \"5\": {\"H\": 1}, \"6\": {\"H\": 1}, \"7\": {\"H\": 1}, \"8\": {\"H\": 1}, \"9\": {\"H\": 1}, \"10\": {\"H\": 1}, \"11\": {\"H\": 1}, \"12\": {\"H\": 1}, \"13\": {\"H\": 1}, \"14\": {\"H\": 1}, \"15\": {\"H\": 1}, \"16\": {\"H\": 1}, \"17\": {\"H\": 1}, \"18\": {\"H\": 1}, \"19\": {\"H\": 1}, \"20\": {\"H\": 1}, \"21\": {\"H\": 1}, \"22\": {\"H\": 1}, \"23\": {\"H\": 1}, \"24\": {\"H\": 1}, \"25\": {\"H\": 1}, \"26\": {\"C\": 1}, \"27\": {\"C\": 1}, \"28\": {\"C\": 1}, \"29\": {\"C\": 1}, \"30\": {\"C\": 1}, \"31\": {\"C\": 1}, \"32\": {\"C\": 1}, \"33\": {\"C\": 1}, \"34\": {\"C\": 1}, \"35\": {\"C\": 1}, \"36\": {\"C\": 1}, \"37\": {\"C\": 1}, \"38\": {\"C\": 1}, \"39\": {\"C\": 1}, \"40\": {\"C\": 1}, \"41\": {\"C\": 1}, \"42\": {\"C\": 1}, \"43\": {\"C\": 1}, \"44\": {\"C\": 1}, \"45\": {\"C\": 1}, \"46\": {\"S\": 1}, \"47\": {\"S\": 1}, \"48\": {\"N\": 1}, \"49\": {\"N\": 1}, \"50\": {\"N\": 1}, \"51\": {\"N\": 1}, \"52\": {\"O\": 1}, \"53\": {\"O\": 1}, \"54\": {\"O\": 1}, \"55\": {\"O\": 1}, \"56\": {\"O\": 1}, \"57\": {\"O\": 1}, \"58\": {\"O\": 1}, \"59\": {\"O\": 1}, \"60\": {\"O\": 1}, \"61\": {\"O\": 1}, \"62\": {\"O\": 1}, \"63\": {\"O\": 1}}" energy=-403.80828857421875 free_energy=-403.80828857421875 stress="-0.011185911484062672 0.00025676540099084377 0.0004119622753933072 0.00025676540099084377 -0.008263558149337769 -0.000241013229242526 0.0004119622753933072 -0.000241013229242526 -0.008509010076522827" pbc="T T T"
Cd       4.19255783       7.98092759       2.12085366        0       0.00486358       0.58479190      -0.66806632
Cd       7.70573110       3.12659720       7.64270888        1       0.00842799      -0.57365221       0.66270763
H        3.24746213       0.32196064       1.91124417        2       0.00050828      -0.12462475      -0.04797867
H        6.76073935       1.93760306       0.07112974        3      -0.01222599      -0.06036087      -0.11038716
H        8.65471169      10.78747719       7.84970534        4      -0.01381177       0.10959429       0.06428546
H        5.13969097       9.16964017       9.68923323        5       0.09855489       0.04155750       0.12184216
H        1.87947289       0.80189835       1.26591922        6       0.05014279      -0.01126717       0.03184277
H        5.39347385       1.35988397       0.63088875        7       0.03312206       0.00010690       0.01406763
H       10.02089751      10.30537530       8.49516168        8      -0.01486566      -0.03246576       0.05530968
H        6.50760914       9.74997740       9.12993266        9      -0.04387640      -0.04817496       0.02989117
H        4.76436554       9.75457694       4.74503213       10       0.01070932       0.03357185      -0.01469360
H        8.27764757       5.95778880       9.06524118       11       0.00730311       0.01527531      -0.02227770
H        7.13786654       1.35130712       5.01606393       12      -0.01430057       0.07786683      -0.02995490
H        3.62598586       5.15109735       0.69646765       13      -0.02323419      -0.02051548       0.02868281
H        5.18330389       9.48693978       7.19422728       14      -0.01767247      -0.01169076      -0.04375632
H        8.69620782       8.35299761       8.48378961       15      -0.01041734      -0.02289577       0.00800470
H        6.71785349       1.62223325       2.56678404       16       0.01968312      -0.01059989       0.03348671
H        3.20440770       2.75515633       1.27758842       17       0.01586410       0.02904154      -0.01069912
H        5.03438326       7.16993087       8.17992579       18       0.03760910      -0.02346114       0.00009941
H        8.54773323       9.03437979       6.06051779       19       0.01861719      -0.05839205      -0.02310289
H        6.86706850       3.93867783       1.58255901       20      -0.02966205       0.03272031      -0.00762556
H        3.35499405       2.07545434       3.70124122       21      -0.03352399      -0.02484672       0.03555891
H        4.53140915       5.24742437       6.69169826       22       0.03723647       0.00831658       0.00500846
H        8.04422495       7.31167768       4.34403991       23       0.03967178      -0.02128297       0.06852536
H        7.37060279       5.86113065       3.07058496       24      -0.04020955      -0.04316057       0.01844543
H        3.85798714       3.79686490       5.41635345       25      -0.03878640       0.00401418       0.00263828
C        4.71420968       8.77859358       5.22309915       26       0.05008516      -0.05523771       0.37131870
C        8.22722961       6.30795247       8.03445739       27       0.04718894       0.32351637      -0.06919271
C        7.18531980       2.33153559       4.53803975       28      -0.02704356      -0.09395111      -0.30749205
C        3.67183928       4.80048900       1.72760164       29      -0.01977022      -0.31794971       0.00483659
C        4.93688616       8.61881635       6.58378397       30       0.00119945       0.05163776       0.01336753
C        8.45038636       7.63750869       7.70092828       31      -0.02279776      -0.06937198       0.07828052
C        6.96570402       2.48917769       3.17702481       32      -0.01227242      -0.00603344       0.01034469
C        3.45147510       3.47134243       2.05956463       33      -0.00188830      -0.00880039      -0.00964992
C        4.85579566       7.33076827       7.11596081       34       0.01887432       0.02009877       0.04297411
C        8.36709489       7.99808641       6.35567502       35       0.06219502       0.15547946       0.02253850
C        7.04707699       3.77789539       2.64604807       36      -0.02824745      -0.02227639      -0.03187993
C        3.53464912       3.10897018       3.40562674       37      -0.03377295       0.00227222      -0.02825550
C        4.56499251       6.25809398       6.28275260       38       0.03895140       0.05919763      -0.00129899
C        8.07793853       7.03389596       5.40057770       39       0.03419989       0.04057577      -0.06161293
C        7.33650358       4.84957095       3.48096995       40      -0.03738872      -0.02514025      -0.02487822
C        3.82360156       4.07442761       4.36223265       41      -0.03608891      -0.04129036      -0.09447361
C        4.34941338       6.49117792       4.91656263       42      -0.01015677      -0.08273108      -0.13728100
C        7.86358690       5.70950834       5.80680704       43      -0.04694708      -0.16616106      -0.10685019
C        7.55076905       4.61616301       4.84818995       44       0.02664032       0.17243084       0.02748394
C        4.03846859       5.39935186       3.95455506       45       0.01268431       0.11305383       0.14187747
S        7.70847420       8.52648833       1.50084609       46      -0.05942003      -0.04439866       0.11321282
S        4.19613082       2.58264779       8.26169142       47      -0.15427065      -0.07345846       0.05870999
N        4.43052287       7.74529884       4.41806512       48      -0.04098476      -0.15603195       0.22248243
N        7.94221411       5.37520775       7.11299244       49      -0.00774023       0.25376394      -0.08370857
N        7.46992607       3.36370356       5.34474719       50       0.02202035       0.07700604      -0.19393715
N        3.95721500       5.73219740       2.64775693       51       0.03315423      -0.19337773       0.17302418
O        8.84498554       8.28732760       2.42925710       52       0.44408321      -0.18097329       0.70556676
O        5.32737234       3.47126732       7.90678290       53       0.59208769       0.74535376      -0.30933243
O        3.05787163       2.82098510       7.33420833       54      -0.45278037       0.17487165      -0.67401803
O        6.57082166       7.63486249       1.85647049       55      -0.41442621      -0.61932123       0.26633516
O        7.26748619       9.96638575       1.59832631       56      -0.20931508       0.69247305       0.19555183
O        3.75451585       2.86314128       9.67954279       57      -0.20556282       0.27460533       0.61415237
O        4.63447359       1.14087256       8.16673050       58       0.21505049      -0.66699898      -0.20575234
O        8.14964724       8.24382549       0.08916362       59       0.23028496      -0.29409376      -0.77283245
O        2.25940664       0.36154198       2.08258571       60      -0.03301701       0.39770067       0.24221981
O        5.77217902       2.11346908       0.09132136       61       0.00294316       0.31482294       0.32711312
O        9.64304233      10.74644615       7.68202135       62       0.00398943      -0.34684628      -0.33995122
O        6.13079817       8.99480007       9.67209980       63      -0.07146797      -0.25388235      -0.38084736
64
Lattice="7.02612563 0.0 0.0 2.438973731191458 9.844849394685873 0.0 2.439021147433653 1.2624938752646402 9.76356345850321" Properties=species:S:1:pos:R:3:spacegroup_kinds:I:1:forces:R:3 spacegroup="P 1" unit_cell=conventional occupancy="_JSON {\"0\": {\"Cd\": 1}, \"1\": {\"Cd\": 1}, \"2\": {\"H\": 1}, \"3\": {\"H\": 1}, \"4\": {\"H\": 1}, \"5\": {\"H\": 1}, \"6\": {\"H\": 1}, \"7\": {\"H\": 1}, \"8\": {\"H\": 1}, \"9\": {\"H\": 1}, \"10\": {\"H\": 1}, \"11\": {\"H\": 1}, \"12\": {\"H\": 1}, \"13\": {\"H\": 1}, \"14\": {\"H\": 1}, \"15\": {\"H\": 1}, \"16\": {\"H\": 1}, \"17\": {\"H\": 1}, \"18\": {\"H\": 1}, \"19\": {\"H\": 1}, \"20\": {\"H\": 1}, \"21\": {\"H\": 1}, \"22\": {\"H\": 1}, \"23\": {\"H\": 1}, \"24\": {\"H\": 1}, \"25\": {\"H\": 1}, \"26\": {\"C\": 1}, \"27\": {\"C\": 1}, \"28\": {\"C\": 1}, \"29\": {\"C\": 1}, \"30\": {\"C\": 1}, \"31\": {\"C\": 1}, \"32\": {\"C\": 1}, \"33\": {\"C\": 1}, \"34\": {\"C\": 1}, \"35\": {\"C\": 1}, \"36\": {\"C\": 1}, \"37\": {\"C\": 1}, \"38\": {\"C\": 1}, \"39\": {\"C\": 1}, \"40\": {\"C\": 1}, \"41\": {\"C\": 1}, \"42\": {\"C\": 1}, \"43\": {\"C\": 1}, \"44\": {\"C\": 1}, \"45\": {\"C\": 1}, \"46\": {\"S\": 1}, \"47\": {\"S\": 1}, \"48\": {\"N\": 1}, \"49\": {\"N\": 1}, \"50\": {\"N\": 1}, \"51\": {\"N\": 1}, \"52\": {\"O\": 1}, \"53\": {\"O\": 1}, \"54\": {\"O\": 1}, \"55\": {\"O\": 1}, \"56\": {\"O\": 1}, \"57\": {\"O\": 1}, \"58\": {\"O\": 1}, \"59\": {\"O\": 1}, \"60\": {\"O\": 1}, \"61\": {\"O\": 1}, \"62\": {\"O\": 1}, \"63\": {\"O\": 1}}" energy=-403.85015869140625 free_energy=-403.85015869140625 stress="-0.010319105349481106 6.326346192508936e-05 0.0003206012479495257 6.326346192508936e-05 -0.0075419191271066666 0.00024237237812485546 0.0003206012479495257 0.00024237237812485546 -0.008019150234758854" pbc="T T T"
Cd       4.18959322       7.98390723       2.11795005        0       0.00896412       0.55447328      -0.63053221
Cd       7.70300434       3.12377266       7.64570829        1       0.01095786      -0.53614712       0.62250769
H        3.24677941       0.32086653       1.90945862        2      -0.02193129      -0.12093274      -0.02388969
H        6.76055751       1.93635071       0.06958789        3      -0.08182638      -0.03617863      -0.10264008
H        8.65467682      10.78886464       7.85002367        4       0.03120138       0.10256349       0.03665934
H        5.13955505       9.17072794       9.68817904        5       0.05521236       0.02975406       0.12237830
H        1.88023874       0.80371127       1.26523978        6       0.04561474      -0.02305024       0.06967340
H        5.39252615       1.36059787       0.63064521        7       0.02043078      -0.00433532       0.03102581
H       10.01823946      10.30271668       8.49545762        8      -0.00277527      -0.02099387       0.02941965
H        6.50535956       9.74986687       9.12906934        9      -0.03383175      -0.06735884       0.03291274
H        4.76338836       9.75632226       4.74514091       10       0.00989292      -0.00974147       0.00846218
H        8.27667351       5.95914018       9.06333463       11      -0.00193127       0.02753739      -0.06006478
H        7.13525110       1.35313302       5.01401340       12      -0.01529611       0.00190501       0.00689048
H        3.62431084       5.15030052       0.69582573       13      -0.02059445      -0.02626065       0.04367964
H        5.18103013       9.48795542       7.19282383       14      -0.01097862       0.00843354      -0.02037621
H        8.69479611       8.35445907       8.48206496       15      -0.00368631      -0.01532926       0.03657409
H        6.71715012       1.62221546       2.56557324       16       0.01862308      -0.01021446       0.02632517
H        3.20352099       2.75591342       1.27572456       17       0.01913781       0.03063246      -0.00003916
H        5.03374714       7.17088516       8.17751632       18       0.04518374      -0.03125773       0.05475426
H        8.54602606       9.03404820       6.05971217       19       0.02926099      -0.00306599      -0.03781204
H        6.86456801       3.93891688       1.58172698       20      -0.03486931       0.03815369      -0.03757024
H        3.35271648       2.07511000       3.70129914       21      -0.03282568      -0.00812162       0.02161597
H        4.53052398       5.24847723       6.69025217       22       0.04373783       0.01664428       0.02048281
H        8.04348679       7.31253627       4.34373828       23       0.04242300      -0.00460446       0.02183661
H        7.36877382       5.86053695       3.06894784       24      -0.04376074      -0.04625785       0.01395258
H        3.85543065       3.79732140       5.41419315       25      -0.04082311      -0.00468129      -0.00653622
C        4.71440358       8.78005796       5.22597186       26      -0.00920492      -0.10297322       0.16402502
C        8.22452955       6.31071510       8.03168421       27       0.05741375       0.23797333       0.04187715
C        7.18303577       2.32986251       4.53504124       28       0.02466649       0.13879895      -0.23204143
C        3.67012392       4.79761057       1.72665791       29       0.02096491      -0.14746669       0.05573019
C        4.93534241       8.62041313       6.58291011       30       0.02475589       0.01187100       0.11840694
C        8.44925623       7.63771944       7.70154766       31      -0.03008691       0.03421963      -0.07159935
C        6.96466876       2.48915784       3.17580567       32      -0.03009013      -0.01662776      -0.04121206
C        3.45055278       3.47168712       2.05852496       33      -0.03506944      -0.11824976      -0.05608194
C        4.85520347       7.33114608       7.11524108       34       0.02039663       0.07783304       0.01712847
C        8.36573569       7.99936024       6.35390810       35       0.06453212       0.08113816       0.10547864
C        7.04478576       3.77855135       2.64417497       36      -0.01728993      -0.05720551       0.01856604
C        3.53222387       3.10868165       3.40385882       37      -0.02396140      -0.01289472       0.02339549
C        4.56541524       6.26010262       6.28341029       38       0.00565691      -0.04229004      -0.09833704
C        8.07816628       7.03575884       5.39888236       39       0.00635991      -0.06538774      -0.00890575
C        7.33429606       4.84874348       3.47914804       40      -0.02209762       0.04981175      -0.01092900
C        3.82117784       4.07372411       4.35945869       41      -0.02071498       0.02029715      -0.02614233
C        4.34835320       6.48951650       4.91416197       42       0.02372164       0.04712233       0.03925645
C        7.86201004       5.70793784       5.80477474       43      -0.00703264       0.05066359      -0.08955298
C        7.55012173       4.61863345       4.84797731       44      -0.00740667       0.05594298      -0.08492291
C        4.03717089       5.40203786       3.95479995       45      -0.01810046      -0.10511845       0.11214343
S        7.70661851       8.52756472       1.50324806       46      -0.06632158      -0.09976904       0.02359224
S        4.19472156       2.58346047       8.26211243       47      -0.19803569      -0.11942676       0.02737883
N        4.42871328       7.74396563       4.41990328       48      -0.01804633      -0.04658990       0.18417551
N        7.93951857       5.37805185       7.11074007       49      -0.01995855       0.15275161      -0.07081188
N        7.46922599       3.36648345       5.34194284       50      -0.00729050      -0.08339359      -0.17247751
N        3.95621846       5.73021227       2.64957725       51       0.01622422      -0.13480069       0.00529385
O        8.84441168       8.28678626       2.43177303       52       0.40072379      -0.16318078       0.65367085
O        5.32443454       3.47423747       7.90490597       53       0.58507431       0.70976436      -0.28959066
O        3.05489356       2.82396866       7.33122415       54      -0.36815435       0.13188660      -0.57296163
O        6.56795075       7.63228122       1.85863335       55      -0.34412265      -0.54103887       0.24138749
O        7.26454135       9.96936173       1.60129034       56      -0.17342588       0.59796178       0.17258379
O        3.75179860       2.86596761       9.68253774       57      -0.17351067       0.22905575       0.50424904
O        4.63681081       1.13787394       8.16571476       58       0.14900121      -0.50488639      -0.17626840
O        8.14754392       8.24088779       0.08621863       59       0.17850186      -0.23632187      -0.59505022
O        2.25852088       0.36452883       2.08466870       60      -0.01482227       0.40048653       0.18258843
O        5.77031286       2.11623434       0.09426585       61       0.08674109       0.29541069       0.29645723
O        9.64413163      10.74353032       7.67924842       62      -0.05652808      -0.34646723      -0.28673846
O        6.12904456       8.99218369       9.66919117       63      -0.03897333      -0.22046608      -0.38345087
64
Lattice="7.02612563 0.0 0.0 2.438973731191458 9.844849394685873 0.0 2.439021147433653 1.2624938752646402 9.76356345850321" Properties=species:S:1:pos:R:3:spacegroup_kinds:I:1:forces:R:3 spacegroup="P 1" unit_cell=conventional occupancy="_JSON {\"0\": {\"Cd\": 1}, \"1\": {\"Cd\": 1}, \"2\": {\"H\": 1}, \"3\": {\"H\": 1}, \"4\": {\"H\": 1}, \"5\": {\"H\": 1}, \"6\": {\"H\": 1}, \"7\": {\"H\": 1}, \"8\": {\"H\": 1}, \"9\": {\"H\": 1}, \"10\": {\"H\": 1}, \"11\": {\"H\": 1}, \"12\": {\"H\": 1}, \"13\": {\"H\": 1}, \"14\": {\"H\": 1}, \"15\": {\"H\": 1}, \"16\": {\"H\": 1}, \"17\": {\"H\": 1}, \"18\": {\"H\": 1}, \"19\": {\"H\": 1}, \"20\": {\"H\": 1}, \"21\": {\"H\": 1}, \"22\": {\"H\": 1}, \"23\": {\"H\": 1}, \"24\": {\"H\": 1}, \"25\": {\"H\": 1}, \"26\": {\"C\": 1}, \"27\": {\"C\": 1}, \"28\": {\"C\": 1}, \"29\": {\"C\": 1}, \"30\": {\"C\": 1}, \"31\": {\"C\": 1}, \"32\": {\"C\": 1}, \"33\": {\"C\": 1}, \"34\": {\"C\": 1}, \"35\": {\"C\": 1}, \"36\": {\"C\": 1}, \"37\": {\"C\": 1}, \"38\": {\"C\": 1}, \"39\": {\"C\": 1}, \"40\": {\"C\": 1}, \"41\": {\"C\": 1}, \"42\": {\"C\": 1}, \"43\": {\"C\": 1}, \"44\": {\"C\": 1}, \"45\": {\"C\": 1}, \"46\": {\"S\": 1}, \"47\": {\"S\": 1}, \"48\": {\"N\": 1}, \"49\": {\"N\": 1}, \"50\": {\"N\": 1}, \"51\": {\"N\": 1}, \"52\": {\"O\": 1}, \"53\": {\"O\": 1}, \"54\": {\"O\": 1}, \"55\": {\"O\": 1}, \"56\": {\"O\": 1}, \"57\": {\"O\": 1}, \"58\": {\"O\": 1}, \"59\": {\"O\": 1}, \"60\": {\"O\": 1}, \"61\": {\"O\": 1}, \"62\": {\"O\": 1}, \"63\": {\"O\": 1}}" energy=-403.8855285644531 free_energy=-403.8855285644531 stress="-0.009877013973891735 0.0001381443435093388 0.00016599202353972942 0.0001381443435093388 -0.006490172352641821 0.0007855916628614068 0.00016599202353972942 0.0007855916628614068 -0.007300049532204866" pbc="T T T"
Cd       4.18856131       7.98688542       2.11500282        0       0.00812172       0.52784717      -0.60248631
Cd       7.70033317       3.12133198       7.64869285        1       0.00928556      -0.49692577       0.58622581
H        3.24492230       0.32125778       1.90730729        2      -0.04102136      -0.11953266      -0.00321053
H        6.75827583       1.93569844       0.06839446        3       0.02981856      -0.04257748      -0.09752877
H        8.65561202      10.79035115       7.85001674        4       0.00033771       0.09417813       0.02597135
H        5.14032385       9.17176099       9.68850312        5       0.00257894       0.02098852       0.11970761
H        1.87908053       0.80540179       1.26641707        6       0.02116863      -0.00819364       0.05355598
H        5.39235490       1.36041848       0.63141010        7       0.04141244       0.05297343       0.00327916
H       10.01584889      10.30171954       8.49522245        8       0.00984364      -0.02329657       0.01256582
H        6.50341917       9.74973888       9.12687656        9      -0.03257912      -0.10115460       0.05289115
H        4.76251365       9.75671576       4.74512863       10       0.00244693      -0.08470838       0.05714530
H        8.27535414       5.95995463       9.06090597       11       0.00080387       0.00221664       0.03667943
H        7.13415497       1.35388577       5.01276740       12      -0.01350436       0.04196729      -0.01953378
H        3.62213831       5.14986013       0.69632526       13      -0.02206627      -0.02576913       0.00493872
H        5.17899425       9.48848480       7.19097705       14      -0.00514053       0.01198570      -0.00345002
H        8.69320111       8.35549827       8.48200734       15      -0.01020186      -0.02522347       0.00982099
H        6.71614929       1.62249876       2.56476633       16       0.00744028      -0.03657906       0.00198489
H        3.20211986       2.75649880       1.27446646       17       0.00799795      -0.01359642      -0.03351951
H        5.03391768       7.17022001       8.17790570       18       0.03933877      -0.02568523       0.02165271
H        8.54547588       9.03513711       6.05719151       19       0.03445324       0.00192742      -0.02268385
H        6.86194982       3.93920970       1.57928678       20      -0.02900200       0.03150979      -0.00381823
H        3.35083255       2.07451972       3.70025367       21      -0.03238459       0.00233796       0.02190985
H        4.53066323       5.24990517       6.68919570       22       0.04279888      -0.02948223       0.03127663
H        8.04287794       7.31380418       4.34357792       23       0.04576516       0.00333296      -0.01130769
H        7.36635202       5.85995933       3.06769923       24      -0.03884012       0.00548071      -0.00974974
H        3.85280064       3.79699275       5.41349055       25      -0.04390801      -0.00041376      -0.03869137
C        4.71243377       8.77869357       5.22856805       26      -0.01027455       0.00670478       0.01039955
C        8.22325403       6.31283700       8.03308210       27       0.01631960       0.20188004      -0.20448536
C        7.18193029       2.33145743       4.53205076       28       0.02801660       0.07653368      -0.16031422
C        3.66871821       4.79504642       1.72524509       29       0.04849087      -0.05245179       0.12421697
C        4.93450797       8.61967636       6.58310351       30       0.03300586       0.04843633       0.18159325
C        8.44756423       7.63940262       7.69962960       31       0.00139142       0.04742502       0.07704101
C        6.96268214       2.48933012       3.17347018       32      -0.01943850       0.00238331      -0.03260749
C        3.44947357       3.47007909       2.05682050       33      -0.03096015      -0.09573411      -0.00800857
C        4.85494908       7.33189821       7.11489994       34       0.00872938      -0.04125934       0.02603656
C        8.36633276       8.00131711       6.35466789       35       0.01957667       0.00695831      -0.06595346
C        7.04284245       3.77796649       2.64257638       36      -0.01046084       0.02311363      -0.01190355
C        3.53043300       3.10834800       3.40269707       37      -0.02934581      -0.04754594       0.00606229
C        4.56521200       6.25951131       6.28123285       38       0.02477990       0.04723776      -0.01860437
C        8.07825311       7.03582393       5.39727526       39       0.03462759       0.06677859       0.06743410
C        7.33341766       4.84993512       3.47756512       40      -0.04454652      -0.04518604      -0.03463049
C        3.81880555       4.07336118       4.35764045       41      -0.00740217      -0.00071046       0.04957762
C        4.34742653       6.48909101       4.91311776       42       0.02405664       0.02525797       0.05536059
C        7.86123961       5.71014782       5.80216657       43      -0.01861602       0.00145897      -0.05402669
C        7.54927380       4.62025168       4.84567050       44      -0.00477359       0.03293604      -0.06599134
C        4.03683137       5.40094829       3.95474130       45      -0.02868094      -0.05744308       0.02138431
S        7.70584453       8.52609539       1.50311229       46      -0.11907357      -0.05970855       0.00213003
S        4.19218833       2.58232018       8.26210394       47      -0.17717406      -0.07361680       0.03613368
N        4.42700279       7.74392432       4.42153412       48      -0.02595020      -0.03933805       0.11394489
N        7.93679734       5.38100096       7.10817733       49       0.00724295       0.14225078       0.04992784
N        7.46854123       3.36737869       5.33927372       50      -0.00424181      -0.05960911      -0.14481200
N        3.95611610       5.72954166       2.64856499       51       0.00297699      -0.17567824       0.00280774
O        8.84293670       8.28669642       2.43423532       52       0.38193724      -0.15740098       0.61512327
O        5.32236675       3.47698668       7.90245104       53       0.52099317       0.62908590      -0.25805828
O        3.05194668       2.82696520       7.32828712       54      -0.29542208       0.08449036      -0.49015698
O        6.56496296       7.62929762       1.86105375       55      -0.25839719      -0.46198982       0.19441165
O        7.26155201       9.97233629       1.60426786       56      -0.12447949       0.44551283       0.12561463
O        3.74880467       2.86888099       9.68553763       57      -0.12629266       0.18330561       0.37438655
O        4.63969677       1.13488425       8.16817072       58       0.08851947      -0.38079810      -0.16965023
O        8.15025184       8.23789574       0.08321909       59       0.10435627      -0.18571815      -0.45453876
O        2.25638860       0.36751727       2.08621242       60       0.02989843       0.37815723       0.17955557
O        5.77182286       2.11914591       0.09672382       61      -0.06686756       0.23901668       0.31944954
O        9.64376905      10.74058520       7.67649575       62      -0.03171197      -0.33608347      -0.25576201
O        6.12786133       8.98980236       9.66659342       63       0.02422711      -0.18225932      -0.39671391
64
Lattice="7.02612563 0.0 0.0 2.438973731191458 9.844849394685873 0.0 2.439021147433653 1.2624938752646402 9.76356345850321" Properties=species:S:1:pos:R:3:spacegroup_kinds:I:1:forces:R:3 spacegroup="P 1" unit_cell=conventional occupancy="_JSON {\"0\": {\"Cd\": 1}, \"1\": {\"Cd\": 1}, \"2\": {\"H\": 1}, \"3\": {\"H\": 1}, \"4\": {\"H\": 1}, \"5\": {\"H\": 1}, \"6\": {\"H\": 1}, \"7\": {\"H\": 1}, \"8\": {\"H\": 1}, \"9\": {\"H\": 1}, \"10\": {\"H\": 1}, \"11\": {\"H\": 1}, \"12\": {\"H\": 1}, \"13\": {\"H\": 1}, \"14\": {\"H\": 1}, \"15\": {\"H\": 1}, \"16\": {\"H\": 1}, \"17\": {\"H\": 1}, \"18\": {\"H\": 1}, \"19\": {\"H\": 1}, \"20\": {\"H\": 1}, \"21\": {\"H\": 1}, \"22\": {\"H\": 1}, \"23\": {\"H\": 1}, \"24\": {\"H\": 1}, \"25\": {\"H\": 1}, \"26\": {\"C\": 1}, \"27\": {\"C\": 1}, \"28\": {\"C\": 1}, \"29\": {\"C\": 1}, \"30\": {\"C\": 1}, \"31\": {\"C\": 1}, \"32\": {\"C\": 1}, \"33\": {\"C\": 1}, \"34\": {\"C\": 1}, \"35\": {\"C\": 1}, \"36\": {\"C\": 1}, \"37\": {\"C\": 1}, \"38\": {\"C\": 1}, \"39\": {\"C\": 1}, \"40\": {\"C\": 1}, \"41\": {\"C\": 1}, \"42\": {\"C\": 1}, \"43\": {\"C\": 1}, \"44\": {\"C\": 1}, \"45\": {\"C\": 1}, \"46\": {\"S\": 1}, \"47\": {\"S\": 1}, \"48\": {\"N\": 1}, \"49\": {\"N\": 1}, \"50\": {\"N\": 1}, \"51\": {\"N\": 1}, \"52\": {\"O\": 1}, \"53\": {\"O\": 1}, \"54\": {\"O\": 1}, \"55\": {\"O\": 1}, \"56\": {\"O\": 1}, \"57\": {\"O\": 1}, \"58\": {\"O\": 1}, \"59\": {\"O\": 1}, \"60\": {\"O\": 1}, \"61\": {\"O\": 1}, \"62\": {\"O\": 1}, \"63\": {\"O\": 1}}" energy=-403.9151611328125 free_energy=-403.9151611328125 stress="-0.009110855869948864 -3.52458591805771e-05 9.153127393801697e-06 -3.52458591805771e-05 -0.005756708327680826 0.0006439480348490179 9.153127393801697e-06 0.0006439480348490179 -0.0062483916990458965" pbc="T T T"
Cd       4.18566604       7.98984707       2.11209536        0       0.00460901       0.50638211      -0.57827014
Cd       7.69760538       3.12093579       7.64975021        1       0.00813732      -0.48166254       0.57286012
H        3.24312317       0.32067827       1.90673105        2       0.02557805      -0.11527587      -0.00737602
H        6.75710700       1.93512108       0.06571387        3      -0.00212380      -0.02356657      -0.08647075
H        8.65536225      10.79259428       7.85097367        4       0.02051188       0.08120477       0.01093329
H        5.13893622       9.17208982       9.68860490        5       0.03395079       0.00257018       0.11987032
H        1.87804550       0.80670290       1.26741417        6       0.03150754      -0.01505999       0.08128501
H        5.39237437       1.36172162       0.63219087        7       0.02329040       0.04253468       0.01674696