94
Lattice="8.266567 0.0 0.0 -2.6120898800864834 8.711655886839674 0.0 -0.00030233368785402125 0.00013037789591178263 12.773910325756816" Properties=species:S:1:pos:R:3:spacegroup_kinds:I:1:forces:R:3 spacegroup="P 1" unit_cell=conventional occupancy="_JSON {\"0\": {\"Cu\": 1}, \"1\": {\"Cu\": 1}, \"2\": {\"H\": 1}, \"3\": {\"H\": 1}, \"4\": {\"H\": 1}, \"5\": {\"H\": 1}, \"6\": {\"H\": 1}, \"7\": {\"H\": 1}, \"8\": {\"H\": 1}, \"9\": {\"H\": 1}, \"10\": {\"H\": 1}, \"11\": {\"H\": 1}, \"12\": {\"H\": 1}, \"13\": {\"H\": 1}, \"14\": {\"H\": 1}, \"15\": {\"H\": 1}, \"16\": {\"H\": 1}, \"17\": {\"H\": 1}, \"18\": {\"H\": 1}, \"19\": {\"H\": 1}, \"20\": {\"H\": 1}, \"21\": {\"H\": 1}, \"22\": {\"H\": 1}, \"23\": {\"H\": 1}, \"24\": {\"H\": 1}, \"25\": {\"H\": 1}, \"26\": {\"H\": 1}, \"27\": {\"H\": 1}, \"28\": {\"H\": 1}, \"29\": {\"H\": 1}, \"30\": {\"H\": 1}, \"31\": {\"H\": 1}, \"32\": {\"H\": 1}, \"33\": {\"H\": 1}, \"34\": {\"H\": 1}, \"35\": {\"H\": 1}, \"36\": {\"H\": 1}, \"37\": {\"H\": 1}, \"38\": {\"C\": 1}, \"39\": {\"C\": 1}, \"40\": {\"C\": 1}, \"41\": {\"C\": 1}, \"42\": {\"C\": 1}, \"43\": {\"C\": 1}, \"44\": {\"C\": 1}, \"45\": {\"C\": 1}, \"46\": {\"C\": 1}, \"47\": {\"C\": 1}, \"48\": {\"C\": 1}, \"49\": {\"C\": 1}, \"50\": {\"C\": 1}, \"51\": {\"C\": 1}, \"52\": {\"C\": 1}, \"53\": {\"C\": 1}, \"54\": {\"C\": 1}, \"55\": {\"C\": 1}, \"56\": {\"C\": 1}, \"57\": {\"C\": 1}, \"58\": {\"C\": 1}, \"59\": {\"C\": 1}, \"60\": {\"C\": 1}, \"61\": {\"C\": 1}, \"62\": {\"C\": 1}, \"63\": {\"C\": 1}, \"64\": {\"C\": 1}, \"65\": {\"C\": 1}, \"66\": {\"C\": 1}, \"67\": {\"C\": 1}, \"68\": {\"C\": 1}, \"69\": {\"C\": 1}, \"70\": {\"C\": 1}, \"71\": {\"C\": 1}, \"72\": {\"C\": 1}, \"73\": {\"C\": 1}, \"74\": {\"N\": 1}, \"75\": {\"N\": 1}, \"76\": {\"N\": 1}, \"77\": {\"N\": 1}, \"78\": {\"N\": 1}, \"79\": {\"N\": 1}, \"80\": {\"N\": 1}, \"81\": {\"N\": 1}, \"82\": {\"N\": 1}, \"83\": {\"N\": 1}, \"84\": {\"N\": 1}, \"85\": {\"N\": 1}, \"86\": {\"N\": 1}, \"87\": {\"N\": 1}, \"88\": {\"N\": 1}, \"89\": {\"N\": 1}, \"90\": {\"N\": 1}, \"91\": {\"N\": 1}, \"92\": {\"N\": 1}, \"93\": {\"N\": 1}}" energy=-625.0101318359375 free_energy=-625.0101318359375 stress="-0.01516331359744072 -0.0030098336283117533 -1.2432544735929696e-06 -0.0030098336283117533 -0.01616736128926277 0.0017608392518013716 -1.2432544735929696e-06 0.0017608392518013716 -0.005889260210096836" pbc="T T T"
Cu       6.96073208       4.35608419       6.38647344        0      -0.01023684       0.18339126      -0.07518172
Cu       5.65441725       8.71176098       0.00002461        1       0.03333819       0.26745358       0.02982402
H        0.83611551       6.57649056       5.59296956        2       0.16690072      -0.01632315      -0.02060296
H        2.15837054       2.20872338       0.79756208        3      -0.38056621       0.48569047      -0.48306656
H        4.79147592       2.11110484       7.18623114        4       0.58683610      -0.26481673      -0.61280811
H        3.49990528       6.47748490      12.01155152        5       0.18749478      -0.23182166       0.08101457
H        0.18352941       6.98919464       7.17602151        6       0.07122423       0.24119246      -0.49644101
H        1.48954578       2.67390729      12.00029050        7      -0.11316996      -0.41062710      -1.00202024
H        5.50297501       1.70713048       5.56605806        8      -0.11664011      -0.11919063       0.29654109
H        4.14839089       6.05124592       0.77118947        9       0.27636373       0.24473530       0.85981762
H        3.63604069       0.28643812       4.98038541       10      -0.14990371       0.04486821      -0.82589632
H        2.30523054       4.61863206       1.41967237       11      -0.10990508      -0.08290932       0.00630045
H        2.07208439       8.47371506       7.79261563       12      -0.16200748      -0.29546744       1.36013365
H        3.35210614       4.08858761      11.35745663       13       0.20820603       0.14387999       0.02667792
H        2.78655592       0.72288654       6.44799497       14      -0.36999333       0.21344897      -0.01753491
H        1.48314826       5.09359101      12.71339715       15       0.06056724       0.01786749      -0.02574955
H        2.88302745       7.98061492       6.28140150       16      -0.77549452       0.71759558       0.72084892
H        4.13819555       3.57974889       0.07337049       17       0.22184995       0.13146238      -0.02267379
H        1.07488928       0.36397321       4.65746903       18       0.42816806       0.80125535      -0.16009997
H       -0.19604280       4.73652020       1.76298453       19       0.35235941       0.94784778       0.22592381
H        4.54597192       8.31065337       8.16400847       20       0.30343911       0.55131096      -0.14436840
H        5.84383583       3.98548828      11.02746360       21       0.13500151       0.17121220      -0.05650523
H        6.83187863       0.37709326       3.29857689       22      -0.11690678      -0.19234610       0.00385466
H        5.50297731       4.72931277       3.09722423       23       0.00741492       0.00990260       0.11886300
H       -1.14897010       8.31725791       9.47918184       24      -0.06524473      -0.74708587       0.40731961
H        0.12819197       3.92601389       9.72092521       25       0.11996295      -0.07981893      -0.13132934
H        2.20022632       7.65221175       2.97603848       26      -0.03648281      -0.35167703       0.27235726
H        3.51008359       3.27881159       3.41077686       27      -0.09876545      -0.19686985      -0.20229062
H        3.46813195       1.09149723       9.79752461       28       0.42328259      -0.07031467       0.14592172
H        2.16514635       5.42923484       9.39108858       29      -0.56723595       0.33252919       0.56274670
H        2.06776745       5.45980672       4.09712476       30      -1.04126000      -0.84095371      -0.09161351
H        3.35881125       1.09339841       2.30773555       31      -0.18935688      -0.34442639      -0.02535384
H        3.60849535       3.28310202       8.70932493       32      -0.80865264      -0.67094564      -0.02227343
H        2.30137250       7.62720303      10.47003868       33      -0.40300521      -0.42266870      -0.02579286
H        3.92278534       4.56958972       5.45849651       34       0.17790893      -0.86083186       0.42306983
H        5.26204128       0.16330396       0.96649801       35       0.20543323       0.71620506       0.06828041
H        1.70942672       4.17595436       7.33918117       36      -0.12069494       0.12553529      -0.00850216
H        0.40632966       8.54591841      11.80840895       37      -0.16096266      -0.73006785      -0.11087313
C        0.21340761       7.32479290       6.10325178       38      -0.12060647      -0.51671904       0.55517375
C        1.51175307       2.96022631       0.25741301       39       1.01786721       0.39313415       1.47183180
C        5.44835208       1.37796535       6.62619550       40      -0.04275747       0.74844408       0.91643405
C        4.15869442       5.73345170      12.51610317       41      -0.93295294      -0.11924249      -0.81598788
C        0.84141819       8.69494613       5.99986038       42       0.15103436      -0.05609864       0.96116054
C        2.18168528       4.34571633       0.35444618       43      -1.41478992      -0.34704053       0.83186573
C        4.78367751       0.03721879       6.77178881       44       1.34564412      -1.11140454      -2.44792533
C        3.49966305       4.37045813      12.42034778       45       0.61692744      -0.32732347      -0.84770370
C       -1.16712708       7.17297481       5.56405574       46       1.33544743       1.64400470       0.18501148
C        0.15015044       2.84662767       0.83756608       47       0.43277517       0.44955814       0.00555709
C        6.83764365       1.49223342       7.21218363       48      -1.08495092       0.98415238      -0.80965495
C        5.49931664       5.86606555      11.93567506       49       1.21150494       1.49773622       0.42420083
C        5.15441372       6.31695292       5.13572148       50      -0.93956864       0.80400294      -0.82407141
C        6.42411737       1.97445750       1.25119968       51       1.71218181       1.36313200       0.22206098
C        0.52745943       2.36166424       7.69599943       52      -0.63697940       1.57380843      -1.12970150
C       -0.77793018       6.72586164      11.47481708       53      -0.65765917       1.12072492       0.64445633
C        5.19821086       7.61256269       4.55665329       54      -1.96928394       0.30951828      -0.99569958
C        6.47027932       3.25225151       1.84702525       55       0.47148705       1.23302472       0.30049866
C        0.46284850       1.07968768       8.22646775       56       2.71498013      -0.97605115       2.01749611
C       -0.83568128       5.46418478      10.88879967       57       0.18837425      -1.48400831      -0.16948086
C        4.11709392       8.10214937       3.76257613       58       1.91940260       0.15710516       0.88035250
C        5.41734884       3.74759448       2.63855558       59       2.06119394       0.68814552      -0.87731194
C        1.54246789       0.56806545       9.03447165       60      -1.61216688       1.17639971      -1.47438228
C        0.21983116       4.91283917      10.15767768       61      -0.92570257       0.86854649       0.54575998
C        3.02102807       7.28070451       3.60413875       62      -0.52844369      -0.29434323      -0.07843040
C        4.33738321       2.94330097       2.77835973       63      -1.62150216      -1.62548006       0.16269054
C        2.63411758       1.40467412       9.19068936       64      -0.15269619      -0.11158154      -0.05649886
C        1.30083938       5.77904557      10.01448628       65       1.59093642      -1.84640574      -1.54144716
C        2.95449406       6.01234475       4.23251886       66       1.16340017       1.27178907      -0.34881833
C        4.27103493       1.65094867       2.15606998       67      -0.39120525       1.74228680       0.99697179
C        2.67614272       2.65892071       8.58025904       68       1.45770216       1.58042216       0.10498540
C        1.38724412       7.01151752      10.60461498       69       0.78541279       1.54512000       0.27121073
C        4.02431085       5.51848373       4.98891778       70      -0.61367434       0.54720867      -0.29681489
C        5.31668790       1.19462828       1.38551722       71      -0.90599573      -2.36444044      -0.42479771
C        1.64226244       3.20698839       7.81866572       72      -0.06741633      -1.24386036       0.29068279
C        0.35144788       7.52294903      11.37754934       73       0.14796409       0.91631663       0.07977259
N        5.70370839       4.48114944       7.95301173       74      -0.39427441       0.14694664       0.29331976
N        6.97748742       0.16117293      11.19880083       75       1.11156809      -2.06997943       0.59538519
N       -0.00399772       4.20906872       4.79183508       76      -1.04608250       1.70332348       0.69308347
N       -1.30255672       8.56830704       1.57690491       77      -1.32416439       1.79877257      -0.66756046
N        5.09682476       5.48566545       8.23939220       78       0.14855804      -0.27150077      -0.19227104
N        6.38754212       1.15305890      10.96325390       79       0.19912797      -0.66776943       0.00930771
N        0.55130255       3.19830703       4.57913783       80       2.25280118      -2.92854214      -1.62678349
N       -0.76024586       7.55578206       1.81475116       81       2.04608130      -1.67789900       1.08702934
N        4.51761353       6.46244928       8.53651558       82      -0.12958924       0.13174546      -0.07923989
N        5.79996574       2.08742842      10.65386648       83      -1.64003062       2.72530532      -0.51149178
N        1.16105208       2.22176172       4.21767362       84      -0.92221844       1.26395547       0.98806524
N       -0.11226914       6.62525924       2.16326561       85      -0.40531847      -0.07424432      -0.42443925
N       -1.84143288       8.14060813       4.87939379       86      -0.31506830      -0.70316541       0.18217218
N       -0.50764513       3.80552135       1.55317854       87      -1.77773976      -1.93370914      -0.38416567
N        7.51041912       0.55846332       7.93247238       88      -1.18504465      -0.87470543      -0.49538073
N        6.18899868       4.93872356      11.23447868       89      -0.29462820      -0.40746582       0.03428368
N        6.35164209       6.12048243       5.73735495       90       0.63614696      -2.19543242       0.89249265
N        7.68185733       1.75584147       0.68790097       91      -0.31855971      -0.89378190      -0.46648636
N       -0.70264492       2.62017877       7.03587774       92       0.27027521      -1.19444811       0.67139757
N       -1.99649952       6.99791714      12.10558352       93      -0.78699255      -1.48620713      -0.37668175
94
Lattice="8.266567 0.0 0.0 -2.6120898800864834 8.711655886839674 0.0 -0.00030233368785402125 0.00013037789591178263 12.773910325756816" Properties=species:S:1:pos:R:3:spacegroup_kinds:I:1:forces:R:3 spacegroup="P 1" unit_cell=conventional occupancy="_JSON {\"0\": {\"Cu\": 1}, \"1\": {\"Cu\": 1}, \"2\": {\"H\": 1}, \"3\": {\"H\": 1}, \"4\": {\"H\": 1}, \"5\": {\"H\": 1}, \"6\": {\"H\": 1}, \"7\": {\"H\": 1}, \"8\": {\"H\": 1}, \"9\": {\"H\": 1}, \"10\": {\"H\": 1}, \"11\": {\"H\": 1}, \"12\": {\"H\": 1}, \"13\": {\"H\": 1}, \"14\": {\"H\": 1}, \"15\": {\"H\": 1}, \"16\": {\"H\": 1}, \"17\": {\"H\": 1}, \"18\": {\"H\": 1}, \"19\": {\"H\": 1}, \"20\": {\"H\": 1}, \"21\": {\"H\": 1}, \"22\": {\"H\": 1}, \"23\": {\"H\": 1}, \"24\": {\"H\": 1}, \"25\": {\"H\": 1}, \"26\": {\"H\": 1}, \"27\": {\"H\": 1}, \"28\": {\"H\": 1}, \"29\": {\"H\": 1}, \"30\": {\"H\": 1}, \"31\": {\"H\": 1}, \"32\": {\"H\": 1}, \"33\": {\"H\": 1}, \"34\": {\"H\": 1}, \"35\": {\"H\": 1}, \"36\": {\"H\": 1}, \"37\": {\"H\": 1}, \"38\": {\"C\": 1}, \"39\": {\"C\": 1}, \"40\": {\"C\": 1}, \"41\": {\"C\": 1}, \"42\": {\"C\": 1}, \"43\": {\"C\": 1}, \"44\": {\"C\": 1}, \"45\": {\"C\": 1}, \"46\": {\"C\": 1}, \"47\": {\"C\": 1}, \"48\": {\"C\": 1}, \"49\": {\"C\": 1}, \"50\": {\"C\": 1}, \"51\": {\"C\": 1}, \"52\": {\"C\": 1}, \"53\": {\"C\": 1}, \"54\": {\"C\": 1}, \"55\": {\"C\": 1}, \"56\": {\"C\": 1}, \"57\": {\"C\": 1}, \"58\": {\"C\": 1}, \"59\": {\"C\": 1}, \"60\": {\"C\": 1}, \"61\": {\"C\": 1}, \"62\": {\"C\": 1}, \"63\": {\"C\": 1}, \"64\": {\"C\": 1}, \"65\": {\"C\": 1}, \"66\": {\"C\": 1}, \"67\": {\"C\": 1}, \"68\": {\"C\": 1}, \"69\": {\"C\": 1}, \"70\": {\"C\": 1}, \"71\": {\"C\": 1}, \"72\": {\"C\": 1}, \"73\": {\"C\": 1}, \"74\": {\"N\": 1}, \"75\": {\"N\": 1}, \"76\": {\"N\": 1}, \"77\": {\"N\": 1}, \"78\": {\"N\": 1}, \"79\": {\"N\": 1}, \"80\": {\"N\": 1}, \"81\": {\"N\": 1}, \"82\": {\"N\": 1}, \"83\": {\"N\": 1}, \"84\": {\"N\": 1}, \"85\": {\"N\": 1}, \"86\": {\"N\": 1}, \"87\": {\"N\": 1}, \"88\": {\"N\": 1}, \"89\": {\"N\": 1}, \"90\": {\"N\": 1}, \"91\": {\"N\": 1}, \"92\": {\"N\": 1}, \"93\": {\"N\": 1}}" energy=-623.9788818359375 free_energy=-623.9788818359375 stress="-0.018399840220808983 0.004122071899473667 -0.0021640160121023655 0.004122071899473667 -0.008882329799234867 0.0029272132087498903 -0.0021640160121023655 0.0029272132087498903 -0.00791383907198906" pbc="T T T"
Cu       6.97170404       4.35482392       6.37992656        0      -0.08193250       0.15898682      -0.13905901
Cu       5.63910166       8.73427392       0.02601154        1       0.25220931      -0.08506066      -0.06839593
H        0.82245205       6.57689123       5.61889088        2       0.28593087      -0.17819414      -0.28924054
H        2.13063442       2.20667466       0.77909329        3       0.17129633      -0.16098073      -0.15303677
H        4.81594938       2.13620518       7.19051400        4       0.67521083      -0.68917763      -0.81097615
H        3.52055275       6.47455946      12.03968955        5      -0.28665003       0.06589518      -0.28109261
H        0.16004775       6.97649777       7.14623609        6       0.06309712       0.22467762       0.27932441
H        1.46065574       2.66751943      12.02885377        7      -0.07487200      -0.95542848      -3.37424564
H        5.48231024       1.68495586       5.58380713        8       0.07953618       0.19379535      -0.56829262
H        4.17274057       6.05975928       0.79931964        9       0.37621284      -0.16321546      -0.44406083
H        3.62288485       0.29665871       4.95836198       10      -0.05210355       0.06650911      -1.02808952
H        2.28072006       4.63352330       1.44558213       11      -0.11416137      -0.35695964      -0.35044301
H        2.05011639       8.45842228       7.81263300       12       0.05830061      -0.01905125       0.20440836
H        3.37225815       4.09891973      11.34760242       13       0.22409332       0.00446383       0.73909891
H        2.80070152       0.74958831       6.43488367       14      -0.40029761       0.26428592       0.03659605
H        1.46044477       5.06492906      12.71471206       15       0.36002856      -0.04222018      -0.01061426
H        2.87848073       8.00530132       6.29511404       16      -0.04139490      -0.24057183       0.17727026
H        4.16440387       3.57777576       0.09202150       17       0.41167584      -0.22400859       0.12238535
H        1.10200249       0.37942973       4.64340496       18       0.29261333       0.58693701      -0.06237544
H       -0.18048686       4.73775417       1.77883240       19      -0.09008400       0.38789773       0.16729182
H        4.51798596       8.28850899       8.17897544       20       0.46797645       1.13791442      -0.43509349
H        5.82275086       3.95859622      10.99969075       21       0.43398261       0.43158484      -0.03096142
H        6.85874334       0.38309793       3.27996827       22      -0.30596197      -1.25242710       0.57381457
H        5.52150673       4.72999394       3.09492832       23      -0.03057259      -0.00189178       0.13255489
H       -1.13227671       8.29747674       9.49574955       24      -0.12152284       0.86006504      -0.44105989
H        0.13971471       3.89709547       9.71174916       25       0.01790009       1.16113162       0.48370486
H        2.19339102       7.67213998       2.97836742       26      -0.09341282      -0.39779550       0.25508437
H        3.48224000       3.27545049       3.40152332       27       0.35024887      -0.26108110      -0.60062915
H        3.47987709       1.09299577       9.78443093       28       0.34105960      -0.14903876       0.30076626
H        2.19116072       5.44222153       9.40903763       29      -1.17785168       0.26791710       0.82928360
H        2.09475542       5.44176537       4.11625952       30      -0.54630429      -0.39898980       0.02536517
H        3.33946635       1.09935432       2.28364215       31       0.89343834       0.32275864      -0.09748834
H        3.59276970       3.28015164       8.73864183       32      -0.59952325      -0.65719914      -0.14542079
H        2.31105387       7.65355498      10.47688765       33      -0.29544917      -0.51965278      -0.06288637
H        3.94698252       4.56259774       5.45205441       34       0.08568133      -0.20865463       0.02785987
H        5.25795062       0.16475328       0.94179464       35       0.27053440       0.76742589       0.26874974
H        1.69830787       4.18741367       7.36703360       36       0.04983303       0.29704693      -0.17730302
H        0.37769462       8.52935566      11.80310771       37      -0.05993794       0.05897190       0.17548861
C        0.18450157       7.31890073       6.10167769       38       1.15219069       0.78489983       0.25230747
C        1.51822831       2.93303044       0.23070515       39       0.55610287       2.23508430       3.98994350
C        5.46707669       1.37886702       6.62151174       40      -0.60194427       0.59618783       1.97362947
C        4.17738638       5.73081455      12.49969501       41      -1.71080136      -0.71683782       1.41434789
C        0.83887956       8.71963441       5.97629919       42       0.31772867      -1.19130433       1.63887489
C        2.18175944       4.33689412       0.37143781       43      -1.30306196      -0.54000026       0.50293958
C        4.80658521       0.01998111       6.76201713       44      -0.12709042       0.10004441      -0.98503768
C        3.51637027       4.34129359      12.44555612       45       0.10470983       0.93509752      -1.76811099
C       -1.15755576       7.17979687       5.57145433       46      -0.64364254       1.10139728      -0.68270093
C        0.16249944       2.85901351       0.82486092       47      -0.32123628       0.56045288       0.77876133
C        6.84852684       1.50693332       7.21693424       48      -2.03925705       0.80183148      -1.24174058
C        5.47355728       5.85036034      11.90846306       49       3.54897261       1.66274047       0.08602613
C        5.16529055       6.30163661       5.11991067       50      -0.58818859       1.95157599      -0.91336906
C        6.44592603       1.98847946       1.27494170       51       0.86290938       0.22934213       0.06535728
C        0.53462477       2.39067264       7.69859046       52      -1.46917963      -0.03519851      -1.08816123
C       -0.78871773       6.71163363      11.45714893       53       0.40299827       2.53187156       1.01841164
C        5.18808848       7.63908796       4.54398337       54      -0.26821601      -1.62081623       0.55266565
C        6.48994341       3.26836688       1.85735508       55      -0.50968605       0.51475686       0.54468024
C        0.43760803       1.05581958       8.20989743       56       3.63330030       0.83200717       1.81511855
C       -0.83003535       5.47292182      10.86969980       57      -1.73760390      -1.95722461       0.53487885
C        4.12747180       8.07565905       3.78636083       58       0.74705684       2.51381922      -1.09103656
C        5.43504589       3.74631720       2.63907824       59       1.14599061       0.79716158      -0.55007374
C        1.51434581       0.59586282       9.01009264       60      -0.68579817      -0.94346631       0.05616811
C        0.19190415       4.92909436      10.16945801       61       0.84742320      -1.08594513      -1.12975287
C        3.00426439       7.28585937       3.60420681       62       0.14556703      -0.40549207       0.44092000
C        4.32426910       2.95285327       2.74911611       63      -1.03620982      -0.55636764       0.93297923
C        2.63788032       1.42835582       9.20533055       64      -1.06071472      -1.46755528      -0.27815676
C        1.28636249       5.77472435      10.03004004       65       2.67458010      -0.99761635      -1.64995098
C        2.97855582       6.03195239       4.26046265       66      -1.39820361       1.08728242      -1.67931914
C        4.29813176       1.67376218       2.16258122       67      -2.07387161      -0.00074892       0.58642173
C        2.69024913       2.63105030       8.57577995       68       1.26873922       3.14752269      -0.44711933
C        1.40583017       7.02956911      10.61487597       69       0.28517285       0.76059234      -0.05436259
C        4.02073558       5.53456968       4.97479046       70       0.89086241      -0.87325484       1.10181737
C        5.33205433       1.17939891       1.40068468       71      -0.05354299      -1.34774613      -0.56410384
C        1.65993846       3.19905296       7.79100239       72      -0.03500663      -1.40061021       0.88618499
C        0.35900388       7.53849952      11.36199004       73      -0.81714743      -0.37011570       0.06300485
N        5.69524709       4.48800177       7.93842197       74       0.88939381      -1.95692277      -0.36924109
N        6.97876654       0.18365529      11.21860832       75       2.09142017      -3.45816278       0.96821684
N       -0.02856063       4.23783097       4.80101907       76       0.37543607      -0.59884417       0.08782616
N       -1.29052239       8.54444347       1.58298255       77      -4.09536982       7.07417440      -2.02062106
N        5.12299584       5.46678863       8.21691184       78      -2.59011078       4.18344021       1.37369061
N        6.41480670       1.16450309      10.98109991       79      -1.94751310       2.31087446      -0.89937419
N        0.54169547       3.19934913       4.58144308       80       1.39040399      -1.70815754      -1.35404432
N       -0.77799981       7.58187895       1.81591785       81       5.16082096      -7.51750660       2.76532507
N        4.52210350       6.47494480       8.55043126       82       1.17385566      -2.09940600      -0.84812772
N        5.79089328       2.10316226      10.66875683       83      -0.53929496       1.12576640      -0.04606523
N        1.13215026       2.19447253       4.22931995       84      -1.34885240       2.28989196       1.16513634
N       -0.13353733       6.63216691       2.18972505       85      -0.67393267       0.50060040      -0.72056788
N       -1.83969070       8.15988636       4.87025938       86      -0.12883841      -1.30749321       0.59536552
N       -0.53326293       3.80151020       1.57747000       87       0.77401727      -0.62172472      -1.12285388
N        7.48892567       0.55272625       7.92046291       88      -1.04175067      -1.46980476      -0.16828123
N        6.19236168       4.91255565      11.21347397       89      -0.87411189       0.39433080       0.38249093
N        6.35859423       6.09692836       5.72718989       90       0.77383000      -0.81142306       0.44375569
N        7.69780728       1.77252901       0.71526497       91      -0.44971460      -1.30432916      -0.75804061
N       -0.72188762       2.64238024       7.05298898       92       1.07847977      -1.12652874       0.85215330
N       -1.97089951       6.98495145      12.12259304       93      -1.91089690      -1.82880640      -0.66746831
94
Lattice="8.266567 0.0 0.0 -2.6120898800864834 8.711655886839674 0.0 -0.00030233368785402125 0.00013037789591178263 12.773910325756816" Properties=species:S:1:pos:R:3:spacegroup_kinds:I:1:forces:R:3 spacegroup="P 1" unit_cell=conventional occupancy="_JSON {\"0\": {\"Cu\": 1}, \"1\": {\"Cu\": 1}, \"2\": {\"H\": 1}, \"3\": {\"H\": 1}, \"4\": {\"H\": 1}, \"5\": {\"H\": 1}, \"6\": {\"H\": 1}, \"7\": {\"H\": 1}, \"8\": {\"H\": 1}, \"9\": {\"H\": 1}, \"10\": {\"H\": 1}, \"11\": {\"H\": 1}, \"12\": {\"H\": 1}, \"13\": {\"H\": 1}, \"14\": {\"H\": 1}, \"15\": {\"H\": 1}, \"16\": {\"H\": 1}, \"17\": {\"H\": 1}, \"18\": {\"H\": 1}, \"19\": {\"H\": 1}, \"20\": {\"H\": 1}, \"21\": {\"H\": 1}, \"22\": {\"H\": 1}, \"23\": {\"H\": 1}, \"24\": {\"H\": 1}, \"25\": {\"H\": 1}, \"26\": {\"H\": 1}, \"27\": {\"H\": 1}, \"28\": {\"H\": 1}, \"29\": {\"H\": 1}, \"30\": {\"H\": 1}, \"31\": {\"H\": 1}, \"32\": {\"H\": 1}, \"33\": {\"H\": 1}, \"34\": {\"H\": 1}, \"35\": {\"H\": 1}, \"36\": {\"H\": 1}, \"37\": {\"H\": 1}, \"38\": {\"C\": 1}, \"39\": {\"C\": 1}, \"40\": {\"C\": 1}, \"41\": {\"C\": 1}, \"42\": {\"C\": 1}, \"43\": {\"C\": 1}, \"44\": {\"C\": 1}, \"45\": {\"C\": 1}, \"46\": {\"C\": 1}, \"47\": {\"C\": 1}, \"48\": {\"C\": 1}, \"49\": {\"C\": 1}, \"50\": {\"C\": 1}, \"51\": {\"C\": 1}, \"52\": {\"C\": 1}, \"53\": {\"C\": 1}, \"54\": {\"C\": 1}, \"55\": {\"C\": 1}, \"56\": {\"C\": 1}, \"57\": {\"C\": 1}, \"58\": {\"C\": 1}, \"59\": {\"C\": 1}, \"60\": {\"C\": 1}, \"61\": {\"C\": 1}, \"62\": {\"C\": 1}, \"63\": {\"C\": 1}, \"64\": {\"C\": 1}, \"65\": {\"C\": 1}, \"66\": {\"C\": 1}, \"67\": {\"C\": 1}, \"68\": {\"C\": 1}, \"69\": {\"C\": 1}, \"70\": {\"C\": 1}, \"71\": {\"C\": 1}, \"72\": {\"C\": 1}, \"73\": {\"C\": 1}, \"74\": {\"N\": 1}, \"75\": {\"N\": 1}, \"76\": {\"N\": 1}, \"77\": {\"N\": 1}, \"78\": {\"N\": 1}, \"79\": {\"N\": 1}, \"80\": {\"N\": 1}, \"81\": {\"N\": 1}, \"82\": {\"N\": 1}, \"83\": {\"N\": 1}, \"84\": {\"N\": 1}, \"85\": {\"N\": 1}, \"86\": {\"N\": 1}, \"87\": {\"N\": 1}, \"88\": {\"N\": 1}, \"89\": {\"N\": 1}, \"90\": {\"N\": 1}, \"91\": {\"N\": 1}, \"92\": {\"N\": 1}, \"93\": {\"N\": 1}}" energy=-623.1122436523438 free_energy=-623.1122436523438 stress="-0.01702682301402092 0.00662299245595932 -0.003491645911708474 0.00662299245595932 -0.009456298314034939 -0.00022450191318057477 -0.003491645911708474 -0.00022450191318057477 -0.008101577870547771" pbc="T T T"
Cu       6.96251652       4.35029140       6.38948755        0      -0.13880727       0.27330208      -0.08568098
Cu       5.61509785       8.76031957       0.04147519        1       0.50048769      -0.68954253      -0.17235383
H        0.79422552       6.54793957       5.63986801        2       1.32069612      -1.11516523      -0.88240600
H        2.14372834       2.18661848       0.78394220        3      -0.25910851       0.17756899      -0.35682648
H        4.83853948       2.12731426       7.20462466        4       0.52241075      -0.26656190      -0.72307289
H        3.52795922       6.47773520      12.04491038        5      -0.46683580       0.25087622      -0.56022906
H        0.13493611       6.98813902       7.14072197        6       0.23080178       0.17430353       0.21891949
H        1.46455906       2.67766132      12.04139379        7       0.01095560      -0.98530531      -3.46362448
H        5.46443469       1.65622823       5.60148549        8       0.18545967       0.59181452      -1.49234653
H        4.15251758       6.08209162       0.81207054        9       0.55762160      -0.34161207      -0.93475187
H        3.62081139       0.30472182       4.96994392       10       0.00159177       0.03534539      -1.27811968