100
Lattice="5.21724225 0.0 0.0 -0.4751903042206746 10.512222244366344 0.0 5.432212603015807e-05 2.673778595446308e-05 18.650698439901724" Properties=species:S:1:pos:R:3:spacegroup_kinds:I:1:forces:R:3 spacegroup="P 1" unit_cell=conventional occupancy="_JSON {\"0\": {\"Zn\": 1}, \"1\": {\"Zn\": 1}, \"2\": {\"Zn\": 1}, \"3\": {\"Zn\": 1}, \"4\": {\"H\": 1}, \"5\": {\"H\": 1}, \"6\": {\"H\": 1}, \"7\": {\"H\": 1}, \"8\": {\"H\": 1}, \"9\": {\"H\": 1}, \"10\": {\"H\": 1}, \"11\": {\"H\": 1}, \"12\": {\"H\": 1}, \"13\": {\"H\": 1}, \"14\": {\"H\": 1}, \"15\": {\"H\": 1}, \"16\": {\"H\": 1}, \"17\": {\"H\": 1}, \"18\": {\"H\": 1}, \"19\": {\"H\": 1}, \"20\": {\"H\": 1}, \"21\": {\"H\": 1}, \"22\": {\"H\": 1}, \"23\": {\"H\": 1}, \"24\": {\"H\": 1}, \"25\": {\"H\": 1}, \"26\": {\"H\": 1}, \"27\": {\"H\": 1}, \"28\": {\"H\": 1}, \"29\": {\"H\": 1}, \"30\": {\"H\": 1}, \"31\": {\"H\": 1}, \"32\": {\"H\": 1}, \"33\": {\"H\": 1}, \"34\": {\"H\": 1}, \"35\": {\"H\": 1}, \"36\": {\"C\": 1}, \"37\": {\"C\": 1}, \"38\": {\"C\": 1}, \"39\": {\"C\": 1}, \"40\": {\"C\": 1}, \"41\": {\"C\": 1}, \"42\": {\"C\": 1}, \"43\": {\"C\": 1}, \"44\": {\"C\": 1}, \"45\": {\"C\": 1}, \"46\": {\"C\": 1}, \"47\": {\"C\": 1}, \"48\": {\"C\": 1}, \"49\": {\"C\": 1}, \"50\": {\"C\": 1}, \"51\": {\"C\": 1}, \"52\": {\"C\": 1}, \"53\": {\"C\": 1}, \"54\": {\"C\": 1}, \"55\": {\"C\": 1}, \"56\": {\"C\": 1}, \"57\": {\"C\": 1}, \"58\": {\"C\": 1}, \"59\": {\"C\": 1}, \"60\": {\"C\": 1}, \"61\": {\"C\": 1}, \"62\": {\"C\": 1}, \"63\": {\"C\": 1}, \"64\": {\"C\": 1}, \"65\": {\"C\": 1}, \"66\": {\"C\": 1}, \"67\": {\"C\": 1}, \"68\": {\"C\": 1}, \"69\": {\"C\": 1}, \"70\": {\"C\": 1}, \"71\": {\"C\": 1}, \"72\": {\"C\": 1}, \"73\": {\"C\": 1}, \"74\": {\"C\": 1}, \"75\": {\"C\": 1}, \"76\": {\"N\": 1}, \"77\": {\"N\": 1}, \"78\": {\"N\": 1}, \"79\": {\"N\": 1}, \"80\": {\"O\": 1}, \"81\": {\"O\": 1}, \"82\": {\"O\": 1}, \"83\": {\"O\": 1}, \"84\": {\"O\": 1}, \"85\": {\"O\": 1}, \"86\": {\"O\": 1}, \"87\": {\"O\": 1}, \"88\": {\"O\": 1}, \"89\": {\"O\": 1}, \"90\": {\"O\": 1}, \"91\": {\"O\": 1}, \"92\": {\"O\": 1}, \"93\": {\"O\": 1}, \"94\": {\"O\": 1}, \"95\": {\"O\": 1}, \"96\": {\"O\": 1}, \"97\": {\"O\": 1}, \"98\": {\"O\": 1}, \"99\": {\"O\": 1}}" energy=-667.2774047851562 free_energy=-667.2774047851562 stress="0.001552295172587037 -0.00022605426784139127 8.269063982879743e-06 -0.00022605426784139127 -0.003534461371600628 0.0013168188743293285 8.269063982879743e-06 0.0013168188743293285 0.00024286813277285546" pbc="T T T"
Zn       2.52323602       8.07001205      10.32548032        0      -0.06887308       0.86330253      -0.22025388
Zn       2.74869874       2.79539497      17.65541962        1      -0.62318850       1.08223867       0.14998643
Zn       2.23709947       2.36879439       8.34331178        2       0.52774507      -0.36084592      -0.05048854
Zn       2.03233151       7.66930617       1.03720537        3      -0.17308706      -0.01894186       0.01525319
H        4.68420925       7.11348512      11.15443865        4       1.97942686       0.31892610       0.34773374
H        4.99943342       1.81131137      16.83972831        5      -0.38983873       0.16454995       0.08199510
H        0.04216049       3.46564305       7.48976151        6       0.58426988      -0.13180497       0.17914331
H       -0.21002393       8.74221606       1.83925185        7      -1.86669445      -0.66417879       0.44969541
H        3.85156533       5.80507735      10.39999413        8       0.35543454       0.88996053       0.50863057
H        4.08772208       0.60633290      17.58756864        9      -0.03277967       0.52569729      -0.38071340
H        0.90788979       4.64639115       8.17655401       10       0.21659017       1.02476168       0.68322766
H        0.62347676       9.94201256       1.09236912       11       0.01090237      -0.15991160       0.24710584
H        1.86503978      10.05350058      14.78239085       12       0.06119278       0.05585226      -0.05104776
H        2.10601545       4.76030954      13.19018454       13       0.27588072       0.39800724      -0.02479294
H        2.86164231       0.42159803       3.87806089       14       0.70737374       0.64574933      -0.23728101
H        2.59982901       5.67879495       5.45789706       15       1.08049452       0.82713938       0.41550082
H        0.59166145      10.11431556      16.96562928       16      -0.18852857      -0.66991115      -0.62246817
H        0.79371608       4.89730708      11.03894827       17       0.37448376       0.71164507      -0.79728180
H        4.17828898       0.43774609       1.65331917       18      -0.33289421      -0.64554453      -0.49840322
H        3.96869352       5.64001928       7.67719706       19      -0.24505538       0.36483338      -0.43607360
H        3.22145693       7.03527221      15.48837137       20      -0.19847460      -0.10478528      -0.09731501
H        3.41246384       1.71432491      12.56282226       21       1.52081752       1.47025836      -0.18548825
H        1.57765465       3.52112938       3.22156910       22      -1.23991001      -0.85359406       0.28640324
H        1.34487426       8.78600684       6.16384027       23      -0.94386625      -1.02063692      -0.21207766
H        4.43889450       6.96283955      13.33677893       24       0.11073875      -0.15217704      -0.33917809
H        4.69354054       1.70275256      14.64845438       25       0.10211548       0.92491472      -0.82910323
H        0.27694618       3.56682868       5.32599604       26      -0.13221160      -0.87255603      -0.54214031
H        0.06002614       8.80239053       3.98130768       27      -0.14043191      -0.94004506       1.13375735
H        3.25713434       9.36647197       7.71618154       28       0.44818020       0.68494070       0.94302356
H        3.51070762       4.16435402       1.53469551       29      -1.63126314      -1.29245400       2.05162454
H        1.53550974       1.11783693      10.88202631       30      -0.39558682      -0.23065707      -0.03962848
H        1.22288660       6.32324649      17.03696703       31       1.75108504       1.26961470      -1.58731771
H        4.34737798       9.99986187      11.67252117       32      -0.09382780      -0.09316784       1.18553388
H        4.65122438       4.75932830      16.29127374       33       0.06374040       0.48689049       1.25903177
H        0.39658895       0.46979732       7.00108525       34      -0.38378936      -0.22786745      -0.21628003
H        0.12678610       5.72509240       2.40690755       35      -0.30295786       0.02752347      -2.09298372
C        1.34188049       8.54373429      12.60435989       36       3.39899111       3.68668842       2.56460524
C        1.60028579       3.32869687      15.33878160       37       0.87501168      -0.79391098       0.01414433
C        3.38395346       1.97828583       5.97011204       38      -1.34038591      -1.68320513       1.46731651
C        3.14262778       7.22965667       3.32650789       39       0.91030973       0.96843433      -0.07793324
C        0.58977939       8.50872986      13.95415371       40       2.80216956       1.41029692      -2.67948675
C        0.90190360       3.25758765      14.01176621       41      -1.42514396      -0.27585906       1.35714900
C        4.11868053       1.93588436       4.70630067       42       1.79548907       2.31188107       1.20928442
C        3.89222833       7.24731661       4.58152696       43       0.00276378      -1.24889302       2.29647636
C        1.01294171       9.40272435      14.94987181       44      -0.49932611      -0.29462472       0.90558010
C        1.23768099       4.14147855      13.02074681       45       0.60186279       0.70887542      -1.17255163
C        3.73505716       1.10800157       3.70482493       46      -0.99454546      -2.13191366      -2.12753940
C        3.48596560       6.36662704       5.65611483       47      -0.69577205      -0.07879541      -1.10371125
C        0.31062238       9.39757476      16.14815609       48      -0.25700504       1.07521141       0.46556836
C        0.53077098       4.21921629      11.80757775       49      -0.59446126      -1.26636267       1.51464498
C        4.44514582       1.05346728       2.47966805       50       1.94419312       2.36868382       1.41606379
C        4.19200763       6.35619619       6.86108512       51       0.14247829      -0.83346915      -0.01564446
C        4.35988337       8.57794586      16.29847149       52       1.92663312       2.66376185       2.33820510
C        4.65331203       3.34888494      11.65683411       53       0.54674858       0.94989002      -0.85540521
C        0.38680712       1.95895687       2.34816424       54      -2.39654469      -3.03439617      -0.69372505
C        0.10594598       7.16132111       7.00975636       55       0.88504434       0.14769338       0.88718295
C        4.05122647       7.71975499      15.33819638       56      -0.41918617      -2.52684593      -3.39767027
C        4.30474952       2.46730140      12.66550545       57      -2.91928005      -2.09625006      -0.72316599
C        0.68233787       2.81757766       3.38387606       58       3.63239741       1.62685382      -2.24915743
C        0.49834709       8.04541183       5.99480448       59       0.75339574       0.93760639       0.41045666
C        4.79378945       7.65057939      14.08777704       60      -2.86202931      -0.93277502       2.69521165
C        4.95738048       2.44898339      13.84026598       61       1.79754853      -1.02204072       2.46857476
C        0.03491304       2.80524880       4.53820473       62      -2.39205766       0.55849183       2.97346449
C       -0.21603972       8.06865064       4.81310619       63       0.05207781       1.45267534      -1.87191081
C        3.56937878       8.68051704      17.57351137       64      -0.36043435      -0.11061841      -0.05350900
C        3.85436484       3.41154589      10.40783448       65      -0.48914063      -3.12294436       1.50895357
C        1.19729611       1.87755265       1.08269225       66      -2.10169077      -1.45885634       1.40290451
C        0.96470265       7.10234949       8.29680483       67      -1.25141573      -0.20337331      -1.20692658
C        3.87757470       9.92411922       8.46691813       68       0.32957476      -0.44522458      -0.88973010
C        4.17179870       4.63003980       0.92306125       69       1.95835352       1.78214264      -4.44762421
C        0.80747337       0.61330795      10.23764701       70       0.20114073      -0.11487608      -1.47975123
C        0.62664587       5.87968227      17.73261113       71      -2.99133158      -1.30370712       3.96698093
C        4.54021521      10.24278480      10.66432973       72       1.47006524       1.39536238      -1.27644968
C        4.78715056       5.02599278      17.38809915       73       1.47519743      -0.10401747      -3.30801821
C        0.16948116       0.26102372       8.04418846       74      -0.78055787      -0.50085044      -1.56727886
C       -0.05748918       5.56965114       1.26119490       75      -1.45904505      -1.60335803       4.52941370
N        3.74753343       9.66401194       9.76898657       76      -0.76163852      -0.63592201      -0.66945517
N        3.99827978       4.38352334      18.20641665       77      -0.49459463      -0.00450552       3.31013393
N        1.00187357       0.84061757       8.85624290       78       0.07952610       0.10417840       3.98699903
N        0.74414041       6.16227015       0.44538195       79       1.51208425       0.62543750      -3.57449532
O        1.01345805       7.81228628      11.66319169       80      -1.33084154      -2.09860420      -2.03803205
O        1.22144742       2.51025769      16.29549710       81      -0.04377311       0.23438448      -0.11855401
O        3.77232784       2.69604134       7.00546492       82      -0.15168500       0.06485263      -0.78970027
O        3.53337061       8.03857493       2.38793670       83      -0.02077749       0.36435851      -0.58001983
O        2.39364695       9.35500235      12.44029994       84      -2.55073190      -1.83920681       0.74899161
O        2.61176343       4.05913158      15.53432898       85      -0.56274283       0.07889618      -0.34580091
O        2.39748380       1.16678548       6.12410099       86       0.71492946       1.09595239      -0.06817342
O        2.17673695       6.48846412       3.12844064       87      -1.36025691      -1.21841085      -0.02319464
O        2.98567039       7.58318176      17.91402738       88       0.01203292       0.41103858       0.36350393
O        3.25214204       2.33321201      10.06700151       89      -0.10927621      -1.05794215       0.09561941
O        1.67413594       2.97750148       0.75580642       90       1.89331079       1.57539010      -1.58794177
O        1.51246158       8.23749689       8.57067356       91       0.21604422      -1.23904455       0.85282081
O        3.46163022       9.76783375      18.23166691       92       0.24721012      -0.81387264      -0.38382262
O        3.68538247       4.42090793       9.76415185       93       0.16220430       4.13835144      -1.80421972
O        1.23238588       0.79099189       0.42436383       94       0.46172649       0.60059828      -0.17011620
O        1.02761495       6.00381608       8.94951909       95       0.31022087       1.74736047      -0.20079517
O        3.85322406       6.74567292      10.88320613       96      -2.39000726      -1.50748134      -0.93811703
O        4.07041766       1.53536671      17.11156147       97       0.65242022      -1.12919390       0.03237176
O        0.96581894       3.74814963       7.79468210       98      -0.93429875      -1.14784622      -1.06926095
O        0.65553920       9.06100132       1.61478638       99       2.38960934       0.49612096      -0.70106131
100
Lattice="5.21724225 0.0 0.0 -0.4751903042206746 10.512222244366344 0.0 5.432212603015807e-05 2.673778595446308e-05 18.650698439901724" Properties=species:S:1:pos:R:3:spacegroup_kinds:I:1:forces:R:3 spacegroup="P 1" unit_cell=conventional occupancy="_JSON {\"0\": {\"Zn\": 1}, \"1\": {\"Zn\": 1}, \"2\": {\"Zn\": 1}, \"3\": {\"Zn\": 1}, \"4\": {\"H\": 1}, \"5\": {\"H\": 1}, \"6\": {\"H\": 1}, \"7\": {\"H\": 1}, \"8\": {\"H\": 1}, \"9\": {\"H\": 1}, \"10\": {\"H\": 1}, \"11\": {\"H\": 1}, \"12\": {\"H\": 1}, \"13\": {\"H\": 1}, \"14\": {\"H\": 1}, \"15\": {\"H\": 1}, \"16\": {\"H\": 1}, \"17\": {\"H\": 1}, \"18\": {\"H\": 1}, \"19\": {\"H\": 1}, \"20\": {\"H\": 1}, \"21\": {\"H\": 1}, \"22\": {\"H\": 1}, \"23\": {\"H\": 1}, \"24\": {\"H\": 1}, \"25\": {\"H\": 1}, \"26\": {\"H\": 1}, \"27\": {\"H\": 1}, \"28\": {\"H\": 1}, \"29\": {\"H\": 1}, \"30\": {\"H\": 1}, \"31\": {\"H\": 1}, \"32\": {\"H\": 1}, \"33\": {\"H\": 1}, \"34\": {\"H\": 1}, \"35\": {\"H\": 1}, \"36\": {\"C\": 1}, \"37\": {\"C\": 1}, \"38\": {\"C\": 1}, \"39\": {\"C\": 1}, \"40\": {\"C\": 1}, \"41\": {\"C\": 1}, \"42\": {\"C\": 1}, \"43\": {\"C\": 1}, \"44\": {\"C\": 1}, \"45\": {\"C\": 1}, \"46\": {\"C\": 1}, \"47\": {\"C\": 1}, \"48\": {\"C\": 1}, \"49\": {\"C\": 1}, \"50\": {\"C\": 1}, \"51\": {\"C\": 1}, \"52\": {\"C\": 1}, \"53\": {\"C\": 1}, \"54\": {\"C\": 1}, \"55\": {\"C\": 1}, \"56\": {\"C\": 1}, \"57\": {\"C\": 1}, \"58\": {\"C\": 1}, \"59\": {\"C\": 1}, \"60\": {\"C\": 1}, \"61\": {\"C\": 1}, \"62\": {\"C\": 1}, \"63\": {\"C\": 1}, \"64\": {\"C\": 1}, \"65\": {\"C\": 1}, \"66\": {\"C\": 1}, \"67\": {\"C\": 1}, \"68\": {\"C\": 1}, \"69\": {\"C\": 1}, \"70\": {\"C\": 1}, \"71\": {\"C\": 1}, \"72\": {\"C\": 1}, \"73\": {\"C\": 1}, \"74\": {\"C\": 1}, \"75\": {\"C\": 1}, \"76\": {\"N\": 1}, \"77\": {\"N\": 1}, \"78\": {\"N\": 1}, \"79\": {\"N\": 1}, \"80\": {\"O\": 1}, \"81\": {\"O\": 1}, \"82\": {\"O\": 1}, \"83\": {\"O\": 1}, \"84\": {\"O\": 1}, \"85\": {\"O\": 1}, \"86\": {\"O\": 1}, \"87\": {\"O\": 1}, \"88\": {\"O\": 1}, \"89\": {\"O\": 1}, \"90\": {\"O\": 1}, \"91\": {\"O\": 1}, \"92\": {\"O\": 1}, \"93\": {\"O\": 1}, \"94\": {\"O\": 1}, \"95\": {\"O\": 1}, \"96\": {\"O\": 1}, \"97\": {\"O\": 1}, \"98\": {\"O\": 1}, \"99\": {\"O\": 1}}" energy=-662.6087646484375 free_energy=-662.6087646484375 stress="-0.004280460998415947 -0.00340089900419116 0.002065525623038411 -0.00340089900419116 -0.015237076207995415 0.0023513599298894405 0.002065525623038411 0.0023513599298894405 -0.006131864618510008" pbc="T T T"
Zn       2.55272741       8.03205369      10.35398657        0      -0.50842875       1.78805518      -1.11752892
Zn       2.70073581       2.74774280      17.66781010        1      -0.02104743       1.38803685       0.30729300
Zn       2.20766816       2.36925898       8.37977097        2       0.48191941      -0.42533559      -0.39455444
Zn       2.04260752       7.65078013       0.99423794        3      -0.08369579       0.28975597       0.69243127
H        4.65248942       7.08264088      11.17376698        4       2.60258603       0.79994786       0.65554112
H        4.98778377       1.77458558      16.80532404        5      -1.30754089       0.02790252       0.35605645
H        0.02275720       3.48602819       7.49896304        6       1.19404769       0.11357965       0.47305325
H       -0.25366439       8.78311848       1.86435762        7       0.91876018      -0.18045008      -0.26809740
H        3.88327554       5.76208451      10.35695088        8      -0.26422560       1.71956205       1.13647532
H        4.09103138       0.58931600      17.59306087        9      -0.14432818       0.27767971      -0.27898851
H        0.92042114       4.62077372       8.19698908       10      -0.06084300       4.08748341       1.91238105
H        0.65396016       9.93267626       1.10442050       11       0.17218271      -0.11575016       0.07862523
H        1.86058953      10.06992797      14.82988199       12      -0.33756605      -0.29906392      -0.25899267
H        2.14080540       4.75156783      13.17218331       13      -0.86688983      -0.02963358       0.12676543
H        2.89279785       0.37543618       3.87347253       14       1.06083810       0.97382963      -0.06590039
H        2.61511194       5.68942764       5.49144173       15       1.43003416       1.22185802      -0.03133170
H        0.55091405      10.12910146      16.95432565       16       0.21885785      -0.25731322      -0.23276512
H        0.79835650       4.89661171      11.04176931       17       0.50367916       0.70118362      -0.81237710
H        4.18856544       0.40357440       1.63523367       18      -0.30994108      -0.09481628       0.77108824
H        3.95779595       5.68033124       7.71711663       19       0.02911014       0.92280912      -1.46554494
H        3.24227773       7.03093523      15.48928549       20       0.56684184       0.49738923      -0.49057591
H        3.41786399       1.69718843      12.52706553       21       1.30203867       1.34093010      -0.01267245
H        1.59915426       3.48263455       3.20959086       22      -1.60899162      -1.01385343       0.26451489
H        1.38212018       8.78846882       6.16470382       23      -0.83327490      -0.94842446       0.03947796
H        4.44500724       6.92903394      13.37047976       24       0.52747607       0.49459004      -0.11929206
H        4.67145356       1.73279721      14.67430665       25       0.62626904       1.55458426      -1.81228232
H        0.26656480       3.59891230       5.30962029       26      -0.14606425      -0.68824726      -0.60416162
H        0.02644981       8.78630809       4.01846844       27       0.47901890       0.16432174       0.02281241
H        3.28906238       9.40795149       7.69698460       28       0.28162777       0.56433463       1.30453324
H        3.50764696       4.15732963       1.49786678       29      -1.78978598      -1.38341951       2.13196635
H        1.56269447       1.14326099      10.89092578       30      -1.03573084      -0.85969937      -0.74205655
H        1.26328457       6.36293442      17.08579444       31       1.85995865       1.36176205      -1.98973477
H        4.36273816       9.96922928      11.70849019       32       0.15651694       0.07347228       0.25556329
H        4.65698754       4.78385794      16.25492559       33      -0.07576529       0.09472001       0.69593382
H        0.37037695       0.44718221       6.96542879       34      -0.57357770      -0.13651231       1.10734606
H        0.10739885       5.77307983       2.36882124       35      -0.29864472      -0.44410604      -1.74481106
C        1.29970582       8.49728551      12.56654599       36       6.21400452       6.40416908       4.84428549
C        1.59771663       3.29152024      15.34114207       37       2.80956507       2.23558474      -1.11002922
C        3.39439481       1.96574787       5.99313215       38      -1.10153830      -0.99529016       1.76449621
C        3.14279786       7.18966091       3.36319939       39       3.99784255       4.65006065      -1.17861223
C        0.61821744       8.50506972      13.98161227       40       2.95240545       1.11194229      -4.60040617
C        0.94452115       3.24952309      13.96772081       41      -2.48928118      -2.47373652       4.30235720
C        4.11669812       1.90259807       4.72679758       42       3.03421712       4.48568916       2.02488923
C        3.92201317       7.26081888       4.62769940       43       0.07712951       0.03784999      -0.89674509
C        1.00038980       9.39230507      14.96270645       44       1.45355463       1.26353002       0.68269444
C        1.19836587       4.15424777      13.06251355       45       3.43942690       3.43930531      -4.23609400
C        3.77575896       1.09464066       3.73324260       46      -2.64701819      -3.89009237      -2.38835955
C        3.51971541       6.40484107       5.60724283       47      -1.48680961      -2.28342772       2.48773026
C        0.32776424       9.41493333      16.14957386       48      -1.42711997      -0.10413549       0.84199035
C        0.56664550       4.19686970      11.79859268       49      -1.72365797      -1.62778306       1.79662776
C        4.44421818       1.00870321       2.52243829       50       3.10284710       2.28235364      -1.41583848
C        4.21391197       6.38440264       6.84059993       51      -0.48356837      -1.29671645       0.60034150
C        4.40536137       8.54001416      16.30984008       52       1.91890585       3.34920812       1.85658884
C        4.68378206       3.30559636      11.63837575       53       0.87296075       1.60892868      -1.38916755
C        0.41198279       1.92661032       2.30640392       54      -4.30003548      -3.03875780       1.43186510
C        0.11301265       7.19596016       7.00924115       55       0.47575444      -1.06285167       1.79875982
C        4.09478879       7.73432341      15.29482454       56      -2.04384828      -3.20082712      -1.10455012
C        4.28891172       2.45128119      12.64199630       57      -1.89052022      -1.89199686      -0.15960154
C        0.67263165       2.77976612       3.36166635       58       4.04791927       2.36950135      -1.93273830
C        0.53208631       8.05565808       6.03052992       59       0.65480137       2.00591326      -1.73193765
C        4.82733038       7.67007783      14.08877582       60      -3.87181473      -2.54999304       1.78051746
C        4.99117893       2.47024084      13.79516258       61       0.41809767      -2.58103371       3.58001328
C        0.00768113       2.85349804       4.51928017       62      -2.47821093      -0.98924148       2.38160467
C       -0.18281057       8.09527236       4.82826332       63      -0.35130578       0.18215728      -0.10574885
C        3.61491770       8.70484823      17.55170965       64      -2.20990658      -1.30500650       2.21412230
C        3.86783672       3.37475969      10.40631977       65      -0.79196161      -2.09204984       0.82371759
C        1.15045992       1.85790460       1.03598903       66      -1.73553216       1.32767808       4.44244814
C        0.92772756       7.08846843       8.28995313       67       0.27863809       1.99800491      -0.14218277
C        3.87838234       9.94686994       8.49055334       68      -0.02183548      -1.02806520       0.01773012
C        4.16521719       4.61786195       0.88514262       69       2.90136647       2.12078261      -4.86182261
C        0.81758198       0.58386691      10.24953314       70       0.67331195       0.60900086      -1.67025805
C        0.60022781       5.90662570      17.69580419       71      -2.81722736      -1.75185180       5.34208202
C        4.56523306      10.20448948      10.67158447       72       2.47515130       2.18893290       1.26442397
C        4.78566529       4.99494432      17.34008961       73       2.92146397       1.87315464      -2.66824055
C        0.17112309       0.30005846       8.07632461       74      -5.81721210      -4.16536045      -7.77601814
C       -0.02945754       5.55460674       1.23392552       75      -2.96919489      -1.95146132       5.59752989
N        3.77620568       9.64933917       9.81437226       76      -2.07998228      -1.23818612      -3.81261444
N        4.01868025       4.36242869      18.16183920       77      -1.41428518      -0.70582485       4.29853535
N        0.95482958       0.81150299       8.80944663       78       6.03538132       4.01673317      10.01032543
N        0.76582739       6.18942679       0.49225577       79       1.19416213       0.08657786      -6.70727682
O        1.05406090       7.76541796      11.64522461       80      -2.23692846      -3.11783791      -2.71933174
O        1.26237393       2.53591881      16.29350867       81      -1.72939968      -1.99572396       0.97823846
O        3.74502034       2.68774257       7.04236552       82       0.67591363       0.55515122      -0.85537624
O        3.49163925       8.00847881       2.35861158       83       1.07057333       0.46969628       0.48749089
O        2.43911595       9.37373309      12.42986147       84      -4.28403139      -3.07678747       0.56904393
O        2.57787916       4.10107885      15.58309376       85      -1.24983120      -0.63959420      -1.09900260
O        2.41296672       1.19350358       6.17023050       86      -0.42905617      -0.12935126      -0.36300996
O        2.20063804       6.52438081       3.12155695       87      -4.78262234      -4.45381927       0.37728226
O        2.95912261       7.58306126      17.95532246       88       1.80733752       2.47006440      -1.52922213
O        3.24700400       2.29305772      10.07318813       89       0.30015782      -0.08491395       0.07137829
O        1.65143120       2.93938910       0.74899924       90       2.42429256       3.53053188      -2.28170943
O        1.49266556       8.27726811       8.59498486       91      -0.56749380      -3.24654627       0.54511333
O        3.49805583       9.80717095      18.23888547       92       0.58202749      -2.36071301      -1.38433337
O        3.66121381       4.42932953       9.80326508       93       0.25462177       2.57977867      -1.10969281
O        1.26804773       0.81144701       0.47077332       94       0.57508409      -4.21466780      -3.26430559
O        1.01140716       5.99473730       8.93818165       95       0.19939014       2.05174613      -0.14214627
O        3.82078357       6.76749999      10.89139535       96      -1.83075178      -3.94018269      -1.60998142
O        4.03489834       1.49536887      17.08935359       97       1.69319534      -0.34295449      -0.48359740
O        0.96159762       3.78078206       7.83776238       98      -1.41509259      -4.89185143      -2.76505947
O        0.69679832       9.03460766       1.56892999       99      -0.99984384      -0.16655868       0.39059705
100