74
Lattice="9.08031253 0.0 0.0 4.378904008694037 9.45962291749315 0.0 4.378914718340235 -0.4566831370456524 9.448585295858772" Properties=species:S:1:pos:R:3:spacegroup_kinds:I:1:forces:R:3 spacegroup="P 1" unit_cell=conventional occupancy="_JSON {\"0\": {\"Cd\": 1}, \"1\": {\"Cd\": 1}, \"2\": {\"H\": 1}, \"3\": {\"H\": 1}, \"4\": {\"H\": 1}, \"5\": {\"H\": 1}, \"6\": {\"H\": 1}, \"7\": {\"H\": 1}, \"8\": {\"H\": 1}, \"9\": {\"H\": 1}, \"10\": {\"H\": 1}, \"11\": {\"H\": 1}, \"12\": {\"H\": 1}, \"13\": {\"H\": 1}, \"14\": {\"H\": 1}, \"15\": {\"H\": 1}, \"16\": {\"H\": 1}, \"17\": {\"H\": 1}, \"18\": {\"H\": 1}, \"19\": {\"H\": 1}, \"20\": {\"H\": 1}, \"21\": {\"H\": 1}, \"22\": {\"H\": 1}, \"23\": {\"H\": 1}, \"24\": {\"H\": 1}, \"25\": {\"H\": 1}, \"26\": {\"H\": 1}, \"27\": {\"H\": 1}, \"28\": {\"H\": 1}, \"29\": {\"H\": 1}, \"30\": {\"C\": 1}, \"31\": {\"C\": 1}, \"32\": {\"C\": 1}, \"33\": {\"C\": 1}, \"34\": {\"C\": 1}, \"35\": {\"C\": 1}, \"36\": {\"C\": 1}, \"37\": {\"C\": 1}, \"38\": {\"C\": 1}, \"39\": {\"C\": 1}, \"40\": {\"C\": 1}, \"41\": {\"C\": 1}, \"42\": {\"C\": 1}, \"43\": {\"C\": 1}, \"44\": {\"C\": 1}, \"45\": {\"C\": 1}, \"46\": {\"C\": 1}, \"47\": {\"C\": 1}, \"48\": {\"C\": 1}, \"49\": {\"C\": 1}, \"50\": {\"C\": 1}, \"51\": {\"C\": 1}, \"52\": {\"C\": 1}, \"53\": {\"C\": 1}, \"54\": {\"C\": 1}, \"55\": {\"C\": 1}, \"56\": {\"C\": 1}, \"57\": {\"C\": 1}, \"58\": {\"N\": 1}, \"59\": {\"N\": 1}, \"60\": {\"N\": 1}, \"61\": {\"N\": 1}, \"62\": {\"N\": 1}, \"63\": {\"N\": 1}, \"64\": {\"N\": 1}, \"65\": {\"N\": 1}, \"66\": {\"O\": 1}, \"67\": {\"O\": 1}, \"68\": {\"O\": 1}, \"69\": {\"O\": 1}, \"70\": {\"O\": 1}, \"71\": {\"O\": 1}, \"72\": {\"O\": 1}, \"73\": {\"O\": 1}}" energy=-485.432861328125 free_energy=-485.432861328125 stress="0.003060753457248211 0.0006456939736381173 0.000724990910384804 0.0006456939736381173 -0.0028906436637043953 0.003956660628318787 0.000724990910384804 0.003956660628318787 -0.002692773472517729" pbc="T T T"
Cd       4.71317340       0.49658220       2.08078754        0       0.05123127       0.00748517      -0.08867709
Cd      13.12622755       6.94935207       8.85183076        1      -0.06335779       0.07351021       0.00437775
H        7.37114626       5.45676481       7.13616686        2       0.06383979      -0.09228787      -0.09389502
H       10.46715645       2.14090261       3.65189559        3      -0.06009877       0.06788363       0.11051348
H       10.14268005       5.56523248       7.52804352        4       0.07707125      -0.07377002      -0.23493013
H        7.69506366       1.75113590       3.52607260        5      -0.05460031       0.23962362       0.10383435
H        6.84952673       8.75410414       3.87932163        6       0.02434111       0.02370904      -0.05489945
H       10.98754355       5.55004903       0.51562706        7      -0.01940562       0.04457210      -0.00620386
H        6.45315668       7.09629378       5.68741190        8      -0.08961511      -0.04796841       0.03686389
H       11.38934351       3.66327765       2.08431920        9       0.00768112      -0.00949825       0.05060054
H       10.60714664       5.91148186       5.27968588       10       0.00340964      -0.04836310       0.03394300
H        7.23228922       4.01436697       3.28802811       11      -0.04163632      -0.05334448       0.07905594
H       10.80466017       7.59620963       3.47097158       12       0.12475340       0.09242597      -0.06655595
H        7.03055354       5.90147526       1.69313400       13      -0.00292227      -0.00096125      -0.07432997
H        7.16325784       1.43426265       9.29824745       14      -0.01496270      -0.01134329       0.03873281
H       10.67531816      -0.21270344       7.56761475       15       0.03493872      -0.05801978       0.01826144
H        7.18885465       3.31678852       7.67914125       16      -0.00746299       0.01437301      -0.02871967
H       10.65085322       1.49138224       5.76294595       17       0.02416711       0.04199453      -0.01378892
H       11.33235834       3.97296650       8.77087344       18      -0.01492925       0.00973976      -0.01435191
H        6.50684414       0.43228472       5.05562214       19       0.01476003       0.02093604      -0.00866666
H        6.72807818       2.52778054       0.91696376       20       0.04958295      -0.06409794       0.10621230
H       11.10903028       8.20722161       6.87767610       21       0.00439811      -0.07707358       0.04959497
H       12.23472973       4.26777502       4.56561381       22      -0.01596939       0.02212629       0.04780988
H        5.60237232       4.64872795       4.96217335       23       0.02132214      -0.04131753      -0.01576597
H       12.17764665       3.08274235       5.83798213       24      -0.07030053       0.02320105       0.06873266
H        5.66394359       3.31973057       6.08487762       25       0.04526156      -0.02849184      -0.03105573
H       14.11135140       8.84775351       2.09582322       26      -0.03506182       0.03022349       0.06082492
H        3.72396237       7.33412977       0.51047900       27       0.05674497       0.04332704      -0.05926413
H        9.76592177       0.63382953       0.88125578       28      -0.07583967      -0.06775811       0.07407389
H        8.07399922       8.15388977       8.77308108       29       0.07122799      -0.06705666      -0.00295132
C        7.64519321       8.08471656       4.20209902       30       0.03330714       0.05190733      -0.02737293
C       10.19366323       5.19436866       1.17084938       31      -0.04692033       0.08283739      -0.08903274
C        7.42612744       7.16355786       5.20651702       32       0.14687458      -0.05195879      -0.04309243
C       10.41356499       4.14708983       2.04219594       33      -0.09592848       0.00718869       0.06777717
C        8.49787751       6.34805965       5.63996733       34       0.21067235       0.76343662      -0.57297361
C        9.34123828       3.67618921       2.83685288       35      -0.20370662       0.61902326      -0.75873601
C        9.74220139       6.50579018       4.99232886       36      -0.15270539       0.06540863      -0.02213895
C        8.09664940       4.33009527       2.71042884       37       0.20310080      -0.00166461      -0.07668245
C        9.85556387       7.45137404       3.98261994       38      -0.06044614      -0.06124328       0.12947847
C        7.98329437       5.38098375       1.81386006       39      -0.04933918       0.04904535      -0.02856993
C        8.06298067       2.03198595       9.15541171       40      -0.10113224      -0.05070147       0.03935703
C        9.77646815      -0.04562138       6.97614799       41       0.10509995       0.03610912      -0.00142223
C        8.08528109       3.07677332       8.24699186       42       0.07947263       0.04601967       0.02857146
C        9.75443222       0.91403436       5.97578070       43      -0.09961093      -0.08162589       0.00279555
C        9.27091651       3.82534094       8.10301872       44      -0.09016088      -0.68827707       0.67244381
C        8.56857457       1.09481227       5.23689949       45       0.06027672      -0.72068042       0.63145304
C       10.38939454       3.43785947       8.87025433       46      -0.07409221       0.09433462      -0.11287592
C        7.44955495       0.30861075       5.58599419       47       0.09832244       0.11575588      -0.07350791
C        5.88661781       2.83730721       0.30125656       48      -0.08441901      -0.18570124       0.07538024
C       11.95230762       8.83822464       6.59901480       49       0.08259338      -0.12090695       0.20565714
C        4.07089336       2.41720957       4.04998991       50       0.10913765       0.05743161       0.03411402
C       13.76848541       5.07645667       6.83874629       51      -0.12958473      -0.13451630      -0.15074165
C       12.84362150       3.49821657       5.06824701       52       0.11140925      -0.02854411      -0.08784549
C        4.99629347       4.11020097       5.70934779       53      -0.11024538       0.06497298       0.03119395
C        6.27574001       8.39530165       0.42506577       54      -0.01384172      -0.16864522      -0.11247507
C       11.56282348       8.98172053       1.04361885       55       0.03214562       0.14279211       0.06646907
C        5.01785997       8.99674497       1.00574444       56      -0.10089444       0.03937979      -0.11951946
C       12.82210053       8.43349064       0.41129352       57       0.05179971      -0.01819973       0.10556234
N        8.30410468       5.47493246       6.66790612       58       1.10654950      -1.05826926       1.01172781
N        9.53333518       2.60741590       3.65812617       59      -1.06518507      -1.06721604       1.00972795
N        9.39912192       4.90549276       7.27482904       60      -1.18610573       1.08642614      -0.79953122
N        8.43914385       1.97371141       4.19738950       61       1.15831828       0.83117795      -1.04568315
N        8.84115775       8.24495436       3.59113520       62      -0.11934453      -0.19105724       0.26459146
N        8.99777473       5.81421970       1.03992128       63       0.10420458      -0.34571534       0.22227661
N        4.74275789       2.14009167       0.46648698       64       0.16142109       0.37293345      -0.27292219
N       13.09777809       8.63879207       7.28773080       65      -0.23487371       0.29447201      -0.38513637
O        5.27739173       2.18017970       3.73439011       66      -0.07152542      -0.13018453      -0.14683965
O       12.56159413       5.37847623       7.08909106       67       0.06236614       0.16555797       0.15677236
O        3.09026042       1.77317164       3.52163672       68       0.06998003      -0.08052090      -0.06964698
O       14.74918598       5.56975375       7.50576845       69      -0.02422976       0.12380234       0.15136266
O        7.40333134       8.88607037       0.79231350       70       0.12644048       0.02230868       0.04797488
O       10.43567242       8.64032605       0.53171794       71      -0.09516865      -0.04284844       0.02562022
O       10.58929943       6.97309484       9.05283570       72       0.09011853       0.14095157       0.04445887
O        7.24947888       0.29885406       2.04442583       73      -0.10271913      -0.05857467      -0.11739645
74
Lattice="9.08031253 0.0 0.0 4.378904008694037 9.45962291749315 0.0 4.378914718340235 -0.4566831370456524 9.448585295858772" Properties=species:S:1:pos:R:3:spacegroup_kinds:I:1:forces:R:3 spacegroup="P 1" unit_cell=conventional occupancy="_JSON {\"0\": {\"Cd\": 1}, \"1\": {\"Cd\": 1}, \"2\": {\"H\": 1}, \"3\": {\"H\": 1}, \"4\": {\"H\": 1}, \"5\": {\"H\": 1}, \"6\": {\"H\": 1}, \"7\": {\"H\": 1}, \"8\": {\"H\": 1}, \"9\": {\"H\": 1}, \"10\": {\"H\": 1}, \"11\": {\"H\": 1}, \"12\": {\"H\": 1}, \"13\": {\"H\": 1}, \"14\": {\"H\": 1}, \"15\": {\"H\": 1}, \"16\": {\"H\": 1}, \"17\": {\"H\": 1}, \"18\": {\"H\": 1}, \"19\": {\"H\": 1}, \"20\": {\"H\": 1}, \"21\": {\"H\": 1}, \"22\": {\"H\": 1}, \"23\": {\"H\": 1}, \"24\": {\"H\": 1}, \"25\": {\"H\": 1}, \"26\": {\"H\": 1}, \"27\": {\"H\": 1}, \"28\": {\"H\": 1}, \"29\": {\"H\": 1}, \"30\": {\"C\": 1}, \"31\": {\"C\": 1}, \"32\": {\"C\": 1}, \"33\": {\"C\": 1}, \"34\": {\"C\": 1}, \"35\": {\"C\": 1}, \"36\": {\"C\": 1}, \"37\": {\"C\": 1}, \"38\": {\"C\": 1}, \"39\": {\"C\": 1}, \"40\": {\"C\": 1}, \"41\": {\"C\": 1}, \"42\": {\"C\": 1}, \"43\": {\"C\": 1}, \"44\": {\"C\": 1}, \"45\": {\"C\": 1}, \"46\": {\"C\": 1}, \"47\": {\"C\": 1}, \"48\": {\"C\": 1}, \"49\": {\"C\": 1}, \"50\": {\"C\": 1}, \"51\": {\"C\": 1}, \"52\": {\"C\": 1}, \"53\": {\"C\": 1}, \"54\": {\"C\": 1}, \"55\": {\"C\": 1}, \"56\": {\"C\": 1}, \"57\": {\"C\": 1}, \"58\": {\"N\": 1}, \"59\": {\"N\": 1}, \"60\": {\"N\": 1}, \"61\": {\"N\": 1}, \"62\": {\"N\": 1}, \"63\": {\"N\": 1}, \"64\": {\"N\": 1}, \"65\": {\"N\": 1}, \"66\": {\"O\": 1}, \"67\": {\"O\": 1}, \"68\": {\"O\": 1}, \"69\": {\"O\": 1}, \"70\": {\"O\": 1}, \"71\": {\"O\": 1}, \"72\": {\"O\": 1}, \"73\": {\"O\": 1}}" energy=-485.48101806640625 free_energy=-485.48101806640625 stress="0.0024546682834625244 0.000571142416447401 0.0008067917660810053 0.000571142416447401 -0.0026909455191344023 0.0031676222570240498 0.0008067917660810053 0.0031676222570240498 -0.0022363364696502686" pbc="T T T"
Cd       4.71312586       0.49614135       2.07902464        0       0.02737409      -0.00000869      -0.08402875
Cd      13.12511893       6.95022460       8.84959062        1      -0.04607967       0.06045768       0.02721031
H        7.36997053       5.45515021       7.13443895        2       0.10627681      -0.09722754      -0.09869833
H       10.46700975       2.14253966       3.65407193        3      -0.06468004       0.05588116       0.11478240
H       10.14232828       5.56555768       7.52591947        4       0.06270065      -0.08520053      -0.24604088
H        7.69432641       1.75015068       3.52504684        5       0.01057775       0.27065000       0.14581867
H        6.84986393       8.75515149       3.87820214        6       0.04291631      -0.00368688      -0.04615920
H       10.98745164       5.55189309       0.51619251        7      -0.00131930       0.03998628      -0.00680134
H        6.45030329       7.09470196       5.68578253        8      -0.02360249      -0.05554612       0.02867609
H       11.39083828       3.66539411       2.08659434        9       0.03247875      -0.04526357       0.06455113
H       10.60614134       5.90982628       5.27895659       10      -0.05197981      -0.00769270       0.02016201
H        7.23427161       4.01399349       3.28963769       11      -0.02100343      -0.04392452       0.06679431
H       10.80538074       7.59799949       3.47130986       12       0.09513211       0.07970856      -0.05616135
H        7.02924780       5.90069233       1.69117684       13       0.00721635      -0.00233973      -0.07792210
H        7.16472603       1.43334592       9.29679966       14      -0.08928435      -0.04968046       0.05205545
H       10.67445911      -0.21394026       7.56816992       15       0.06705642      -0.06508008       0.04429618
H        7.18714015       3.31737139       7.67659733       16       0.09138206      -0.00395768       0.02123941
H       10.65215581       1.49115982       5.76360270       17      -0.03655948       0.01660986      -0.01794522
H       11.33302735       3.97240454       8.77170834       18       0.01728727       0.04431499      -0.03634186
H        6.50421922       0.43053905       5.05541103       19       0.07853270       0.03122297       0.00905960
H        6.73009352       2.52617120       0.91829809       20       0.00851575      -0.05703284       0.07103889
H       11.10679679       8.20784037       6.87609342       21       0.01946467      -0.08548532       0.06644888
H       12.23412865       4.26794346       4.56623530       22       0.00110146      -0.00547421       0.05130855
H        5.60212855       4.64843716       4.96066158       23       0.00196568      -0.04691753       0.00831395
H       12.17716737       3.08173619       5.83712464       24      -0.05472069       0.03109977       0.06149007
H        5.66640013       3.31931422       6.08477305       25      -0.02776567       0.05267823      -0.06335976
H       14.11196568       8.84857996       2.09696341       26      -0.03532173       0.03613390       0.00399034
H        3.72316057       7.33577771       0.51086224       27       0.06627679      -0.01398668      -0.04408340
H        9.76594543       0.63172425       0.88072889       28      -0.07472497       0.00179671       0.06365743
H        8.07361226       8.15143903       8.77289793       29       0.08257225      -0.06480230       0.02599624
C        7.64535285       8.08385368       4.20068802       30      -0.03831327       0.00688294       0.08126802
C       10.19527667       5.19390761       1.17157300       31      -0.05704376       0.04001784      -0.04638791
C        7.42708103       7.16201462       5.20867748       32       0.04521077       0.08157463      -0.16377871
C       10.41458848       4.14539376       2.04402840       33      -0.10864779       0.11280644      -0.01827278
C        8.49989908       6.35054786       5.63784501       34       0.06886040       0.57174742      -0.31322485
C        9.33989962       3.67893097       2.83451498       35      -0.07743368       0.36002195      -0.56787384
C        9.74008852       6.50698006       4.99238957       36       0.05771502       0.01578374      -0.06776848
C        8.09835148       4.33147669       2.71092476       37       0.06778768       0.01077737      -0.07426232
C        9.85484100       7.45095990       3.98161451       38      -0.00109613      -0.06086273       0.14442280
C        7.98202379       5.38022268       1.81276678       39       0.01770610       0.06351551      -0.04137845
C        8.06066449       2.03211447       9.15501484       40       0.04908317      -0.00773478       0.02911821
C        9.77704577      -0.04614363       6.97745471       41       0.04052493       0.10593240      -0.12262149
C        8.08676569       3.07598983       8.24547332       42      -0.11322335       0.02453156       0.01089006
C        9.75317897       0.91342609       5.97458126       43       0.06035437      -0.11512451       0.12585366
C        9.26994794       3.82371998       8.10553102       44      -0.00648390      -0.46648043       0.48879147
C        8.56866627       1.09250860       5.23906583       45       0.02724902      -0.52493888       0.37926552
C       10.39035930       3.43924518       8.86798987       46      -0.09912091      -0.06923452       0.02730550
C        7.45019067       0.30959905       5.58428927       47      -0.01529696      -0.02668615       0.03980941
C        5.88815077       2.83496793       0.30022801       48      -0.09455389      -0.08183473       0.01747963
C       11.95249513       8.83728546       6.60110378       49      -0.00917560       0.02110162      -0.00036274
C        4.07242352       2.41684170       4.05131826       50       0.00055573       0.02795026      -0.01599017
C       13.76852746       5.07621087       6.83706429       51      -0.19194649      -0.08501372      -0.06831348
C       12.84480629       3.49779613       5.06819480       52       0.03131643      -0.01428542      -0.08050971
C        4.99434656       4.11176022       5.70952415       53       0.04342914      -0.03744155       0.01018208
C        6.27556158       8.39423028       0.42385687       54       0.06223756       0.03372987       0.04858058
C       11.56259089       8.98316637       1.04328108       55      -0.03396636       0.01104820      -0.07792324
C        5.01690217       8.99706635       1.00484920       56      -0.00737400      -0.02786940      -0.03223468
C       12.82446836       8.43321838       0.41249558       57      -0.09569167       0.02831432       0.03270516
N        8.30667972       5.47269882       6.67031220       58       0.93520117      -0.84830385       0.77560443
N        9.53070325       2.60470472       3.66062836       59      -0.92725313      -0.78483999       0.78931725
N        9.39617174       4.90815026       7.27198812       60      -1.02762127       0.85280013      -0.56641531
N        8.44204815       1.97626111       4.19452347       61       0.93596244       0.57538474      -0.84559786
N        8.84080622       8.24375907       3.59268604       62      -0.10994025      -0.13065523       0.18335962
N        8.99959323       5.81177442       1.04055720       63       0.02777829      -0.30101627       0.19369695
N        4.74244613       2.14105241       0.46531618       64       0.16290298       0.35665309      -0.26275849
N       13.09644371       8.64012527       7.28523372       65      -0.14996919       0.21333620      -0.25279760
O        5.27569347       2.17870662       3.73320351       66       0.07998209      -0.12352499      -0.14241050
O       12.56091822       5.37861062       7.08883414       67       0.09459814       0.15567352       0.13547695
O        3.09263497       1.77139747       3.52124117       68       0.03030354      -0.05209361      -0.03838125
O       14.74787965       5.56885595       7.50680703       69      -0.00857681       0.11657751       0.12476759
O        7.40480587       8.88688956       0.79127991       70       0.05421419       0.00110841       0.03547332
O       10.43295477       8.64048650       0.53014161       71       0.03597714      -0.00696456       0.07140824
O       10.59131710       6.97531597       9.05421489       72       0.05337235      -0.03357443      -0.09692669
O        7.24891491       0.29834247       2.04210956       73      -0.10138042       0.02397695      -0.01793393
74
Lattice="9.08031253 0.0 0.0 4.378904008694037 9.45962291749315 0.0 4.378914718340235 -0.4566831370456524 9.448585295858772" Properties=species:S:1:pos:R:3:spacegroup_kinds:I:1:forces:R:3 spacegroup="P 1" unit_cell=conventional occupancy="_JSON {\"0\": {\"Cd\": 1}, \"1\": {\"Cd\": 1}, \"2\": {\"H\": 1}, \"3\": {\"H\": 1}, \"4\": {\"H\": 1}, \"5\": {\"H\": 1}, \"6\": {\"H\": 1}, \"7\": {\"H\": 1}, \"8\": {\"H\": 1}, \"9\": {\"H\": 1}, \"10\": {\"H\": 1}, \"11\": {\"H\": 1}, \"12\": {\"H\": 1}, \"13\": {\"H\": 1}, \"14\": {\"H\": 1}, \"15\": {\"H\": 1}, \"16\": {\"H\": 1}, \"17\": {\"H\": 1}, \"18\": {\"H\": 1}, \"19\": {\"H\": 1}, \"20\": {\"H\": 1}, \"21\": {\"H\": 1}, \"22\": {\"H\": 1}, \"23\": {\"H\": 1}, \"24\": {\"H\": 1}, \"25\": {\"H\": 1}, \"26\": {\"H\": 1}, \"27\": {\"H\": 1}, \"28\": {\"H\": 1}, \"29\": {\"H\": 1}, \"30\": {\"C\": 1}, \"31\": {\"C\": 1}, \"32\": {\"C\": 1}, \"33\": {\"C\": 1}, \"34\": {\"C\": 1}, \"35\": {\"C\": 1}, \"36\": {\"C\": 1}, \"37\": {\"C\": 1}, \"38\": {\"C\": 1}, \"39\": {\"C\": 1}, \"40\": {\"C\": 1}, \"41\": {\"C\": 1}, \"42\": {\"C\": 1}, \"43\": {\"C\": 1}, \"44\": {\"C\": 1}, \"45\": {\"C\": 1}, \"46\": {\"C\": 1}, \"47\": {\"C\": 1}, \"48\": {\"C\": 1}, \"49\": {\"C\": 1}, \"50\": {\"C\": 1}, \"51\": {\"C\": 1}, \"52\": {\"C\": 1}, \"53\": {\"C\": 1}, \"54\": {\"C\": 1}, \"55\": {\"C\": 1}, \"56\": {\"C\": 1}, \"57\": {\"C\": 1}, \"58\": {\"N\": 1}, \"59\": {\"N\": 1}, \"60\": {\"N\": 1}, \"61\": {\"N\": 1}, \"62\": {\"N\": 1}, \"63\": {\"N\": 1}, \"64\": {\"N\": 1}, \"65\": {\"N\": 1}, \"66\": {\"O\": 1}, \"67\": {\"O\": 1}, \"68\": {\"O\": 1}, \"69\": {\"O\": 1}, \"70\": {\"O\": 1}, \"71\": {\"O\": 1}, \"72\": {\"O\": 1}, \"73\": {\"O\": 1}}" energy=-485.51434326171875 free_energy=-485.51434326171875 stress="0.0014250497333705425 0.00047133100451901555 0.0008795916219241917 0.00047133100451901555 -0.002267388626933098 0.003107410855591297 0.0008795916219241917 0.003107410855591297 -0.0019404756603762507" pbc="T T T"
Cd       4.71345067       0.49550761       2.07678509        0       0.02944433       0.00173359      -0.07625155
Cd      13.12480088       6.94890091       8.84845424        1      -0.04080267       0.06290369       0.03233154
H        7.37258320       5.45400776       7.13363298        2       0.04755753      -0.10507617      -0.06287215
H       10.46790483       2.14406182       3.65534799        3      -0.08599530       0.04488777       0.12662065
H       10.14197703       5.56440752       7.52412732        4       0.06419719      -0.07396600      -0.24725738
H        7.69659746       1.75202910       3.52355323        5      -0.00156315       0.26518440       0.14136082
H        6.85025082       8.75565998       3.87645429        6       0.04364612      -0.00036815      -0.04276077
H       10.98540411       5.55265309       0.51506589        7       0.03695647       0.05032215      -0.02580499
H        6.44886671       7.09337477       5.68579436        8       0.01393642      -0.05670114       0.00454964
H       11.39322503       3.66557946       2.08702440        9      -0.04790756      -0.00884339       0.06423141
H       10.60552645       5.91045829       5.27939511       10      -0.02390483      -0.01651993       0.02868608
H        7.23439605       4.01299468       3.28968046       11      -0.02946466      -0.04648576       0.07169990
H       10.80518767       7.60007936       3.47094339       12       0.04383180       0.06604470      -0.03067384
H        7.02842182       5.90123532       1.68909962       13       0.03782220      -0.01614656      -0.08165746
H        7.16249273       1.43315054       9.29778311       14       0.01676910      -0.00209840       0.04891547
H       10.67574389      -0.21237745       7.56995593       15      -0.01812081      -0.05546609      -0.00908632
H        7.18555145       3.31861051       7.67577006       16       0.10710862      -0.01571589       0.03539323
H       10.65070287       1.49223290       5.76284305       17      -0.02000831       0.01684671      -0.01225844
H       11.33399001       3.97259814       8.77145580       18      -0.04099873       0.03019220      -0.04452278
H        6.50599414       0.43046715       5.05439252       19       0.06140527       0.03537270      -0.00411569
H        6.73169934       2.52603798       0.91915845       20      -0.01948918      -0.05217766       0.04475103
H       11.10734293       8.20761866       6.87465737       21       0.02080137      -0.09443088       0.07008685
H       12.23435838       4.26889387       4.56650352       22      -0.01415010       0.01549076       0.03281142
H        5.60124375       4.64904522       4.96066229       23       0.00222993      -0.05182257       0.01111391
H       12.17695414       3.08140996       5.83584471       24      -0.04511416       0.03798526       0.04850200
H        5.66760780       3.31969270       6.08559519       25      -0.05247416       0.06215328      -0.07823244
H       14.11208231       8.85065052       2.09721446       26      -0.02595323       0.02898136      -0.03734306
H        3.72381083       7.33527389       0.50947007       27       0.05578969       0.04242377      -0.04059044
H        9.76519732       0.63262322       0.88105618       28      -0.06186748      -0.03743948       0.06096575
H        8.07415966       8.14994324       8.77226746       29       0.07535814      -0.05445272       0.02653128
C        7.64626356       8.08530406       4.19974304       30      -0.15985347      -0.06497997       0.15480989
C       10.19578915       5.19436902       1.17130894       31      -0.03704980       0.01398265      -0.02752048
C        7.42610507       7.16041879       5.20671890       32       0.06019318       0.10656659      -0.14188762
C       10.41454315       4.14670063       2.04393642       33       0.01834577       0.03325066      -0.00696243
C        8.50125139       6.35165549       5.63681526       34      -0.03452034       0.48499429      -0.19202805
C        9.34029767       3.68094492       2.83210523       35      -0.12053533       0.19277950      -0.40719295
C        9.74087608       6.50840838       4.99364223       36       0.04499183       0.01702920      -0.08667652
C        8.09734647       4.33158305       2.71051478       37       0.10559644       0.00878848      -0.09904204
C        9.85331197       7.45102265       3.98205628       38       0.10257992      -0.04365091       0.10385130
C        7.98145259       5.37935040       1.81118872       39       0.00002104       0.07171945      -0.01401206
C        8.06298151       2.03141452       9.15533390       40      -0.18148458      -0.00905913      -0.05128703
C        9.77639442      -0.04504472       6.97615594       41       0.20238328       0.02394931       0.02411631
C        8.08529176       3.07527409       8.24474359       42      -0.10268475       0.01123467       0.03810996
C        9.75436862       0.91188140       5.97571618       43      -0.00434502      -0.02133924       0.01388206
C        9.26869802       3.82131747       8.10807820       44      -0.03668635      -0.25888398       0.29317299
C        8.56826116       1.08989662       5.24134420       45       0.11609636      -0.34168655       0.18551663
C       10.38888075       3.44019145       8.86674373       46       0.03935747      -0.12691458       0.11986901
C        7.45159379       0.30940090       5.58256849       47      -0.07708348      -0.09101485       0.09123431
C        5.88938247       2.83378700       0.29924410       48      -0.04442883       0.00935188      -0.01337507
C       11.95362117       8.83611233       6.59993332       49      -0.03052485       0.04442248      -0.03237978
C        4.07317001       2.41630419       4.04886283       50      -0.11838789       0.03369826       0.01358229
C       13.76604490       5.07508988       6.83500869       51      -0.02428649      -0.00126734       0.04979271
C       12.84471599       3.49927088       5.06711707       52       0.02471247      -0.12102865      -0.10527126
C        4.99336502       4.11048447       5.70841201       53       0.08368453      -0.00185947       0.03993221
C        6.27594732       8.39617078       0.42380868       54       0.10849328      -0.13237754      -0.07864257
C       11.56177061       8.98284868       1.04113421       55       0.04450813       0.06565720       0.00083148
C        5.01939791       8.99600713       1.00310297       56      -0.13502866       0.06946515       0.04185483
C       12.82277379       8.43499258       0.41256556       57       0.01605242      -0.07726990      -0.00330848
N        8.30892265       5.47015236       6.67296176       58       0.85258889      -0.65126246       0.52543020
N        9.52866728       2.60207610       3.66317859       59      -0.74128079      -0.52021480       0.57841682
N        9.39366676       4.90987332       7.26967899       60      -0.88553602       0.61192083      -0.35826325
N        8.44481575       1.97825632       4.19205445       61       0.79317117       0.35918784      -0.61367464