65
Lattice="8.41044668 0.0 0.0 1.027466751864536 8.37710604750475 0.0 0.42146254656739246 3.176171543626793 9.572282691767006" Properties=species:S:1:pos:R:3:spacegroup_kinds:I:1:forces:R:3 spacegroup="P 1" unit_cell=conventional occupancy="_JSON {\"0\": {\"Cu\": 1}, \"1\": {\"Cu\": 1}, \"2\": {\"Cu\": 1}, \"3\": {\"H\": 1}, \"4\": {\"H\": 1}, \"5\": {\"H\": 1}, \"6\": {\"H\": 1}, \"7\": {\"H\": 1}, \"8\": {\"H\": 1}, \"9\": {\"H\": 1}, \"10\": {\"H\": 1}, \"11\": {\"H\": 1}, \"12\": {\"H\": 1}, \"13\": {\"H\": 1}, \"14\": {\"H\": 1}, \"15\": {\"H\": 1}, \"16\": {\"H\": 1}, \"17\": {\"H\": 1}, \"18\": {\"H\": 1}, \"19\": {\"C\": 1}, \"20\": {\"C\": 1}, \"21\": {\"C\": 1}, \"22\": {\"C\": 1}, \"23\": {\"C\": 1}, \"24\": {\"C\": 1}, \"25\": {\"C\": 1}, \"26\": {\"C\": 1}, \"27\": {\"C\": 1}, \"28\": {\"C\": 1}, \"29\": {\"C\": 1}, \"30\": {\"C\": 1}, \"31\": {\"C\": 1}, \"32\": {\"C\": 1}, \"33\": {\"C\": 1}, \"34\": {\"C\": 1}, \"35\": {\"C\": 1}, \"36\": {\"C\": 1}, \"37\": {\"C\": 1}, \"38\": {\"C\": 1}, \"39\": {\"C\": 1}, \"40\": {\"C\": 1}, \"41\": {\"C\": 1}, \"42\": {\"C\": 1}, \"43\": {\"N\": 1}, \"44\": {\"N\": 1}, \"45\": {\"N\": 1}, \"46\": {\"N\": 1}, \"47\": {\"N\": 1}, \"48\": {\"N\": 1}, \"49\": {\"N\": 1}, \"50\": {\"N\": 1}, \"51\": {\"O\": 1}, \"52\": {\"O\": 1}, \"53\": {\"O\": 1}, \"54\": {\"O\": 1}, \"55\": {\"O\": 1}, \"56\": {\"O\": 1}, \"57\": {\"O\": 1}, \"58\": {\"O\": 1}, \"59\": {\"O\": 1}, \"60\": {\"O\": 1}, \"61\": {\"O\": 1}, \"62\": {\"O\": 1}, \"63\": {\"O\": 1}, \"64\": {\"O\": 1}}" energy=-443.87701416015625 free_energy=-443.87701416015625 stress="-0.012936843559145927 -0.0015683859819546342 -0.0026449807919561863 -0.0015683859819546342 -0.01023240014910698 0.0023897697683423758 -0.0026449807919561863 0.0023897697683423758 -0.0003613218723330647" pbc="T T T"
Cu       4.71910022       4.18846398       0.00007616        0      -0.00901976      -0.00081934       0.01466487
Cu       0.85057411       5.30865073       3.34561407        1       0.04899798       0.12340445       0.07333711
Cu       9.00622927       6.24162028       6.23279428        2       0.01325025      -0.12088875      -0.11577517
H        5.74526106       7.05858280       2.58444774        3       0.14347854       0.11511284       0.02613747
H        4.11574486       4.49496156       6.99185964        4      -0.15305887      -0.12608261      -0.03424403
H        1.49914440       3.59093122       0.75933242        5      -0.01516343       0.05814280       0.03476954
H        8.36111166       7.96083473       8.81713534        6      -0.06300273       0.03536381      -0.05059457
H        5.21743195       8.69510526       6.53155276        7       0.13941473       0.08433762      -0.01029955
H        4.64115411       2.85804577       3.04241317        8      -0.13655587      -0.08420905      -0.01245701
H        4.95053388       1.17335217       0.76959596        9       0.02420986      -0.14117351       0.04928565
H        4.90947166      10.37685409       8.80017109       10      -0.12562212       0.17097943      -0.03523747
H        8.22932961       1.84275684       1.45571294       11      -0.07122225      -0.00295123      -0.01783604
H        1.63253710       9.71090565       8.11709800       12       0.02512159       0.02902476       0.02476458
H        1.59860230       9.13225508       2.64340046       13      -0.06283642       0.06627472      -0.00983150
H        8.26330692       2.42029271       6.93001756       14       0.05060939      -0.05506383      -0.01374150
H        8.57547415       7.83873766       1.15968568       15      -0.13988541      -0.05460207       0.04234148
H        1.28245108       3.71369709       8.41171693       16       0.12506807       0.05071866      -0.01473001
H        1.84254857       7.38275066       0.84087622       17       0.05398358       0.02908207      -0.03961361
H        8.01854467       4.17129377       8.73243850       18      -0.10435310       0.00594638       0.03896149
C        3.87217855       6.62249389       3.52286924       19      -0.11508752       0.10494608       0.09148458
C        5.98595393       4.92704581       6.05206912       20       0.23262937       0.00684041      -0.08987370
C        5.13200366       7.21479532       3.46666729       21       0.03905412      -0.09312972      -0.08985832
C        4.72740335       4.33641163       6.10889174       22      -0.06439717       0.05882476       0.03443286
C        3.57107317       7.55817443       5.78698091       23       0.03381063      -0.03345975      -0.04006904
C        6.28892785       3.99303580       3.79057700       24       0.02667721       0.04990131      -0.13208300
C        3.06056236       6.80348012       4.68356809       25      -0.09409750      -0.03772146       0.06120727
C        6.79983261       4.74878520       4.88879094       26       0.00356770       0.01819065       0.12898141
C        2.18316653       2.76048851       0.83902635       27       0.01538268       0.10458419       0.05135238
C        7.67366888       8.79253325       8.73324781       28       0.12156329      -0.14806080      -0.04475571
C        4.83559001       8.14337610       5.68095501       29       0.02209326      -0.09319066      -0.15003556
C        5.02345195       3.41028884       3.89176785       30      -0.04003572       0.07188266       0.20323503
C        2.90896112       7.71375633       7.13107669       31      -0.08773765      -0.10606549      -0.00076416
C        6.95261187       3.84078656       2.44417180       32       0.05033413       0.05915224       0.03239349
C        5.60080611       7.96740668       4.53006537       33      -0.15219775       0.05567390       0.20878266
C        4.25839444       3.58390434       5.04252713       34       0.17934936       0.01654940      -0.12490368
C        3.92176230       1.49530578       0.86438065       35      -0.06214875       0.07070456       0.00621750
C        5.93577646      10.05666599       8.70759357       36       0.22220141       0.06246637      -0.03746535
C        0.52066412       1.01437724       1.57477989       37       0.13792768       0.08789790       0.04822329
C        9.33850344      10.53888622       7.99793583       38      -0.14917800      -0.11879893       0.01486748
C        1.11486371       8.19533968       0.73799390       39      -0.02932187      -0.35852176       0.09692286
C        8.74287034       3.35853447       8.83671099       40       0.10456721       0.30730641      -0.14989457
C        3.50213839       5.77216471       2.34501135       41      -0.03303391      -0.19923648      -0.06736407
C        6.35926186       5.78286706       7.23110345       42      -0.17283940       0.01657867      -0.03893602
N        3.50804260       2.78093329       0.64010747       43       0.01795194      -0.10641170      -0.13760513
N        6.35026331       8.77286758       8.93344550       44      -0.05872843       0.10069138       0.12332854
N        1.83144443       1.50874803       1.17975281       45      -0.16020811      -0.10361312       0.25608391
N        8.02506840      10.04470481       8.39217939       46       0.24726318       0.14981177      -0.27040660
N        6.96206832       8.49434133       4.48196249       47       0.45026863       0.01801389      -0.43155313
N        2.89747409       3.06109030       5.09124257       48      -0.46319020      -0.09243470       0.32134247
N        2.92659212       0.69530650       1.19753036       49       0.27862763      -0.36058956      -0.30787581
N        6.93197389      10.86268777       8.37550221       50      -0.37069851       0.12171620       0.34777355
O        2.30387525       5.36117602       2.13753450       51       0.05919111       0.12881111       0.13330635
O        7.55533175       6.18710035       7.43613643       52       0.10020471      -0.03554413      -0.06793234
O        1.85605453       6.23857188       4.74877187       53      -0.04636317      -0.14893143       0.03737945
O        8.00525727       5.31011387       4.82842464       54       0.05550322       0.16665603      -0.06101943
O        3.48026348       8.39420237       8.01269798       55      -0.03371517       0.07781249      -0.28279272
O        6.38207040       3.16168135       1.56227614       56      -0.03476374      -0.12008835       0.24438703
O        1.76622194       7.14336809       7.39034826       57       0.01653957       0.00581187      -0.07305184
O        8.09547031       4.40665622       2.18219190       58       0.04083616       0.05735695       0.12364611
O        4.45005742       5.48332207       1.55528590       59       0.01291996      -0.07996123      -0.11780416
O        5.41162841       6.07065274       8.02159089       60      -0.02288674       0.09276316       0.10635483
O        7.42392730       9.02882015       5.49957845       61      -0.05535027       0.18170278       0.15488911
O        2.43533396       2.52606655       4.07278370       62       0.06586331      -0.16243133      -0.13302016
O        7.59867832       8.34837451       3.41715342       63      -0.21891345       0.07387005       0.06276309
O        2.26071809       3.20530857       6.15441551       64       0.18715313      -0.05092417       0.00980693
65
Lattice="8.41044668 0.0 0.0 1.027466751864536 8.37710604750475 0.0 0.42146254656739246 3.176171543626793 9.572282691767006" Properties=species:S:1:pos:R:3:spacegroup_kinds:I:1:forces:R:3 spacegroup="P 1" unit_cell=conventional occupancy="_JSON {\"0\": {\"Cu\": 1}, \"1\": {\"Cu\": 1}, \"2\": {\"Cu\": 1}, \"3\": {\"H\": 1}, \"4\": {\"H\": 1}, \"5\": {\"H\": 1}, \"6\": {\"H\": 1}, \"7\": {\"H\": 1}, \"8\": {\"H\": 1}, \"9\": {\"H\": 1}, \"10\": {\"H\": 1}, \"11\": {\"H\": 1}, \"12\": {\"H\": 1}, \"13\": {\"H\": 1}, \"14\": {\"H\": 1}, \"15\": {\"H\": 1}, \"16\": {\"H\": 1}, \"17\": {\"H\": 1}, \"18\": {\"H\": 1}, \"19\": {\"C\": 1}, \"20\": {\"C\": 1}, \"21\": {\"C\": 1}, \"22\": {\"C\": 1}, \"23\": {\"C\": 1}, \"24\": {\"C\": 1}, \"25\": {\"C\": 1}, \"26\": {\"C\": 1}, \"27\": {\"C\": 1}, \"28\": {\"C\": 1}, \"29\": {\"C\": 1}, \"30\": {\"C\": 1}, \"31\": {\"C\": 1}, \"32\": {\"C\": 1}, \"33\": {\"C\": 1}, \"34\": {\"C\": 1}, \"35\": {\"C\": 1}, \"36\": {\"C\": 1}, \"37\": {\"C\": 1}, \"38\": {\"C\": 1}, \"39\": {\"C\": 1}, \"40\": {\"C\": 1}, \"41\": {\"C\": 1}, \"42\": {\"C\": 1}, \"43\": {\"N\": 1}, \"44\": {\"N\": 1}, \"45\": {\"N\": 1}, \"46\": {\"N\": 1}, \"47\": {\"N\": 1}, \"48\": {\"N\": 1}, \"49\": {\"N\": 1}, \"50\": {\"N\": 1}, \"51\": {\"O\": 1}, \"52\": {\"O\": 1}, \"53\": {\"O\": 1}, \"54\": {\"O\": 1}, \"55\": {\"O\": 1}, \"56\": {\"O\": 1}, \"57\": {\"O\": 1}, \"58\": {\"O\": 1}, \"59\": {\"O\": 1}, \"60\": {\"O\": 1}, \"61\": {\"O\": 1}, \"62\": {\"O\": 1}, \"63\": {\"O\": 1}, \"64\": {\"O\": 1}}" energy=-443.88641357421875 free_energy=-443.88641357421875 stress="-0.013115494512021542 -0.0015911211958155036 -0.0015565832145512104 -0.0015911211958155036 -0.009178724139928818 0.002749180421233177 -0.0015565832145512104 0.002749180421233177 -0.0003603959921747446" pbc="T T T"
Cu       4.72075031       4.18721369       0.00075631        0      -0.01775276       0.00245528       0.01125735
Cu       0.85150048       5.30631686       3.34852670        1       0.07189324       0.13293189       0.07686453
Cu       9.00446014       6.24029125       6.23560246        2       0.03578097      -0.11467037      -0.12207144
H        5.74705534       7.05973779       2.58720088        3       0.17458838       0.08015780      -0.07369158
H        4.11601776       4.49443154       6.98955180        4      -0.23340151      -0.10746370       0.09318970
H        1.49869895       3.59327597       0.76203979        5       0.00854544       0.03874989       0.03658114
H        8.36143799       7.95899163       8.81677223        6      -0.10504173       0.06949842      -0.06037165
H        5.21962581       8.69614336       6.53415739        7       0.05304292      -0.02613385      -0.17588010
H        4.63994105       2.85776884       3.04108808        8      -0.08352467      -0.00155474       0.11024828
H        4.95302045       1.17157762       0.77237527        9      -0.03835461      -0.09771717       0.04624238
H        4.90734124      10.37822980       8.80074326       10      -0.05080456       0.14051926      -0.03524577
H        8.22853157       1.84336073       1.45477650       11      -0.01922910      -0.06286252      -0.01045920
H        1.63466853       9.71029289       8.11988925       12      -0.07039229       0.12233235       0.01224386
H        1.59696647       9.13351085       2.64210304       13      -0.04993068       0.04823272       0.06254694
H        8.26588209       2.41970780       6.93156983       14       0.04060525      -0.04303005      -0.06675014
H        8.57316243       7.83708434       1.16049473       15      -0.13686153      -0.06124403       0.05457712
H        1.28178786       3.71379461       8.41459480       16       0.13203055       0.05332579      -0.02684676
H        1.84411362       7.38182944       0.83876493       17       0.01889713       0.03592712      -0.02941728
H        8.01757574       4.17083462       8.73330786       18      -0.12899926       0.03816506       0.03573500
C        3.87079421       6.62058073       3.52579224       19       0.00195822       0.07529615      -0.03958428
C        5.98670848       4.92773639       6.05448350       20       0.15239729      -0.06827618      -0.14938554
C        5.13110811       7.21197025       3.46429767       21       0.07168832       0.09924515       0.26364145
C        4.72640773       4.33511475       6.11133823       22       0.08730260       0.07889081      -0.14359832
C        3.57120506       7.55748816       5.78971659       23      -0.03170615      -0.12374811      -0.16301781
C        6.28866469       3.99115220       3.79284357       24       0.12623225       0.10713431      -0.15845993
C        3.06173767       6.80069978       4.68580900       25      -0.22639221      -0.03587103       0.14246020
C        6.80199816       4.74680218       4.89068949       26      -0.10137987       0.01182407       0.17091897
C        2.18326068       2.76230203       0.84141062       27      -0.01519895       0.02991307       0.07198972
C        7.67132455       8.79020450       8.73084352       28       0.29437202       0.03762126      -0.07304445
C        4.83370410       8.14075423       5.67917723       29       0.21469404       0.12418333       0.13032420
C        5.02330418       3.41224035       3.89455803       30      -0.11437638      -0.06739310      -0.01779388
C        2.91003788       7.71358586       7.13151032       31      -0.17278323      -0.15492657       0.01106086
C        6.95384478       3.84089670       2.44443351       32       0.04698583       0.04344913       0.08527149
C        5.60247863       7.96926813       4.53273925       33      -0.25144392      -0.16903235      -0.11316881
C        4.25666479       3.58485654       5.04164622       34       0.19341287       0.08134313       0.03815897
C        3.92301021       1.49693261       0.86609698       35      -0.03280076      -0.06227189       0.00616261
C        5.93567415      10.05677545       8.70843153       36       0.14728682       0.19194542      -0.01735692
C        0.52220525       1.01385553       1.57539087       37       0.01527327       0.13554244      -0.02652833
C        9.33664288      10.54027507       7.99846225       38      -0.00773162      -0.22962865       0.03668877
C        1.11275319       8.19267630       0.73981658       39       0.04912392      -0.28928870       0.02184147
C        8.74112825       3.35894907       8.83607478       40       0.12584639       0.27609524      -0.04513751
C        3.50407781       5.77001960       2.34444527       41      -0.14219046      -0.14743470       0.05885391
C        6.36009671       5.78479552       7.23075775       42      -0.34196466      -0.04454488       0.00283466
N        3.50729594       2.77952224       0.64254727       43       0.08790493       0.02591163      -0.16617094
N        6.35125577       8.77575146       8.93569240       44      -0.14085205      -0.02183294       0.11707193
N        1.83158155       1.50979111       1.18206138       45      -0.09075607      -0.17250758       0.22138160
N        8.02485620      10.04748466       8.39042406       46       0.14118613      -0.02651195      -0.20095927
N        6.96449267       8.49293470       4.47908324       47       0.31695324       0.21342593       0.08344185
N        2.89601449       3.06311267       5.09406927       48      -0.37140417      -0.22432426      -0.03527863
N        2.92895907       0.69324313       1.19625803       49       0.20185429      -0.25185594      -0.28959709
N        6.93123928      10.86543433       8.37842020       50      -0.35233313       0.06630841       0.32542148
O        2.30615348       5.35929923       2.14038972       51      -0.01769781       0.10043948       0.11827594
O        7.55301279       6.18686350       7.43546121       52       0.26652217       0.03043827      -0.03750572
O        1.85374387       6.23620436       4.75154098       53       0.06575286      -0.10917565       0.02785903
O        8.00531553       5.30838221       4.83110193       54       0.10488734       0.17909193      -0.07951578
O        3.48065158       8.39433279       8.01180367       55      -0.02091887       0.10867601      -0.23626049
O        6.38323892       3.15991839       1.56376927       56       0.00415352      -0.08300966       0.25048363
O        1.76626363       7.14161544       7.39156704       57       0.06780314       0.03463346      -0.07902211
O        8.09802643       4.40796756       2.18493081       58      -0.04505163       0.01138669       0.10006025
O        4.44751044       5.48320090       1.55313945       59       0.13933764      -0.09307597      -0.17671585
O        5.41305936       6.07163618       8.02430665       60      -0.02578617       0.08396447       0.07399189
O        7.42386662       9.03177214       5.50256840       61      -0.11260184       0.05421811      -0.08175731
O        2.43684818       2.52510610       4.07092632       62       0.09117660      -0.07469794       0.04320616
O        7.59679645       8.35078833       3.41888304       63      -0.05521832       0.03326261      -0.17576420
O        2.26333559       3.20393725       6.15473468       64       0.05539252      -0.03245051       0.16546839
65
Lattice="8.41044668 0.0 0.0 1.027466751864536 8.37710604750475 0.0 0.42146254656739246 3.176171543626793 9.572282691767006" Properties=species:S:1:pos:R:3:spacegroup_kinds:I:1:forces:R:3 spacegroup="P 1" unit_cell=conventional occupancy="_JSON {\"0\": {\"Cu\": 1}, \"1\": {\"Cu\": 1}, \"2\": {\"Cu\": 1}, \"3\": {\"H\": 1}, \"4\": {\"H\": 1}, \"5\": {\"H\": 1}, \"6\": {\"H\": 1}, \"7\": {\"H\": 1}, \"8\": {\"H\": 1}, \"9\": {\"H\": 1}, \"10\": {\"H\": 1}, \"11\": {\"H\": 1}, \"12\": {\"H\": 1}, \"13\": {\"H\": 1}, \"14\": {\"H\": 1}, \"15\": {\"H\": 1}, \"16\": {\"H\": 1}, \"17\": {\"H\": 1}, \"18\": {\"H\": 1}, \"19\": {\"C\": 1}, \"20\": {\"C\": 1}, \"21\": {\"C\": 1}, \"22\": {\"C\": 1}, \"23\": {\"C\": 1}, \"24\": {\"C\": 1}, \"25\": {\"C\": 1}, \"26\": {\"C\": 1}, \"27\": {\"C\": 1}, \"28\": {\"C\": 1}, \"29\": {\"C\": 1}, \"30\": {\"C\": 1}, \"31\": {\"C\": 1}, \"32\": {\"C\": 1}, \"33\": {\"C\": 1}, \"34\": {\"C\": 1}, \"35\": {\"C\": 1}, \"36\": {\"C\": 1}, \"37\": {\"C\": 1}, \"38\": {\"C\": 1}, \"39\": {\"C\": 1}, \"40\": {\"C\": 1}, \"41\": {\"C\": 1}, \"42\": {\"C\": 1}, \"43\": {\"N\": 1}, \"44\": {\"N\": 1}, \"45\": {\"N\": 1}, \"46\": {\"N\": 1}, \"47\": {\"N\": 1}, \"48\": {\"N\": 1}, \"49\": {\"N\": 1}, \"50\": {\"N\": 1}, \"51\": {\"O\": 1}, \"52\": {\"O\": 1}, \"53\": {\"O\": 1}, \"54\": {\"O\": 1}, \"55\": {\"O\": 1}, \"56\": {\"O\": 1}, \"57\": {\"O\": 1}, \"58\": {\"O\": 1}, \"59\": {\"O\": 1}, \"60\": {\"O\": 1}, \"61\": {\"O\": 1}, \"62\": {\"O\": 1}, \"63\": {\"O\": 1}, \"64\": {\"O\": 1}}" energy=-443.89508056640625 free_energy=-443.89508056640625 stress="-0.012701880186796188 -0.002033400582149625 -0.002093185903504491 -0.002033400582149625 -0.008911628276109695 0.002194889821112156 -0.002093185903504491 0.002194889821112156 -0.0004609099996741861" pbc="T T T"
Cu       4.72237721       4.18637574       0.00061414        0      -0.04510306       0.01770194       0.03617601
Cu       0.84993719       5.30428669       3.35151622        1       0.10908902       0.14266065       0.06176198
Cu       9.00431764       6.23885781       6.23834346        2       0.05292897      -0.11710206      -0.13766798
H        5.74701341       7.05925287       2.58771850        3       0.16278061       0.09402399      -0.04696302
H        4.11640254       4.49290821       6.99242865        4      -0.20130980      -0.10570709       0.02794605
H        1.49829338       3.59461966       0.76480618        5       0.00359576       0.02554547       0.04228861
H        8.36075845       7.95696532       8.81864523        6      -0.07761989       0.06463853      -0.07046573
H        5.21980231       8.69430578       6.53287240        7       0.12771992       0.07969482      -0.02847992
H        4.64045477       2.85917061       3.04313446        8      -0.10712464      -0.02166183       0.07536985
H        4.95128608       1.17182791       0.77318299        9       0.05751395      -0.12503374       0.03022815
H        4.90561912      10.37995527       8.80140029       10      -0.06576401       0.13540338      -0.02439959
H        8.22874404       1.84238733       1.45579031       11      -0.09387102       0.03108090      -0.03714274
H        1.63422815       9.71309068       8.12186064       12       0.00101117       0.00884227       0.04108473
H        1.59700243       9.13342359       2.64427766       13      -0.07365886       0.08352630      -0.06407824
H        8.26802085       2.41839585       6.93143615       14       0.04121188      -0.07304282       0.01339705
H        8.57197253       7.83709546       1.16146790       15      -0.18351017      -0.07556412       0.06603134
H        1.28288325       3.71477050       8.41428944       16       0.12010158       0.04886751      -0.02082476
H        1.84243917       7.38266759       0.84082509       17       0.03767712       0.01241971      -0.03024956
H        8.01616774       4.17237633       8.73220424       18      -0.11648694       0.02949415       0.03602675
C        3.87068652       6.61806105       3.52836455       19       0.05407881       0.16802032      -0.04259408
C        5.98600397       4.92554853       6.05596848       20       0.22070587       0.01205666      -0.21538664
C        5.13268176       7.21389129       3.46663294       21      -0.09601301      -0.09870809       0.08230448
C        4.72485187       4.33638848       6.10968533       22       0.07421935       0.09321986       0.04019815
C        3.57264557       7.55634490       5.79224152       23       0.01422499      -0.11402082      -0.22170693
C        6.29010033       3.99268421       3.79213525       24      -0.02689874       0.07420022      -0.11414015
C        3.05986338       6.79773218       4.68752513       25      -0.01200062       0.06085083       0.16258480
C        6.80205956       4.74775015       4.88860678       26      -0.11476886       0.01948795       0.30120534
C        2.18219535       2.76287828       0.84412810       27       0.01143894      -0.03533790       0.05912583
C        7.67337650       8.78912802       8.72937144       28       0.05058426       0.09461284      -0.03232655
C        4.83574861       8.14313493       5.68207246       29       0.05065680      -0.09277795      -0.11968055
C        5.02120805       3.41374160       3.89593583       30       0.00596669      -0.02927898       0.00309120
C        2.91090955       7.71161954       7.13169262       31      -0.05291992      -0.03165334       0.07757756
C        6.95408230       3.84236767       2.44609651       32       0.06774679       0.00306489       0.06016867
C        5.60052851       7.96657870       4.53112969       33      -0.07522154       0.05645381       0.16802515
C        4.25548106       3.58307131       5.04444484       34       0.20575225       0.08519153      -0.09755176
C        3.92327156       1.49422553       0.86493131       35      -0.16012625       0.13229074      -0.00848988
C        5.93369411      10.05869648       8.71071111       36       0.22108588       0.08974136       0.00235320
C        0.51947741       1.01516120       1.57312216       37       0.15458733      -0.02569087       0.19209504
C        9.33671421      10.53780269       8.00126092       38      -0.10600355      -0.02111409      -0.10330465
C        1.11031308       8.19134767       0.74170337       39       0.08751594      -0.16893852      -0.08569419
C        8.74120437       3.36165003       8.83508419       40       0.08831597       0.15712819       0.02438156
C        3.50182287       5.77229792       2.34555541       41       0.12126938      -0.20542370       0.03240296
C        6.35959342       5.78650414       7.23270885       42      -0.24000233      -0.13659194      -0.05756768
N        3.50493901       2.78028859       0.64118145       43       0.16627309      -0.08298403      -0.13380644
N        6.35090572       8.77609202       8.93795213       44      -0.08551654       0.00802487       0.07858500
N        1.83139328       1.50864406       1.18391733       45      -0.08700087      -0.14320636       0.18913552
N        8.02208532      10.04627528       8.38875997       46       0.26027250       0.04168300      -0.19168600
N        6.96685837       8.49545999       4.48195259       47       0.21795547       0.03459838      -0.33533293
N        2.89366857       3.06263327       5.09434236       48      -0.23503482      -0.16926220       0.08328028
N        2.93096924       0.69142208       1.19582500       49       0.09994393      -0.24195479      -0.27559137
N        6.92904497      10.86732243       8.38137609       50      -0.30358753       0.01310480       0.30077952
O        2.30885439       5.35739886       2.14330059       51      -0.19127375       0.07593521       0.09925330
O        7.55566441       6.18453077       7.43767341       52       0.16545856       0.02840428      -0.03693122
O        1.85626892       6.23451696       4.75449683       53      -0.08373293      -0.17465588       0.02748397
O        8.00666663       5.30755946       4.83255698       54       0.08438602       0.17951016      -0.08135838
O        3.48342047       8.39709563       8.01053361       55      -0.10262977       0.02984399      -0.28904474
O        6.38483293       3.15945085       1.56654099       56      -0.01819715      -0.09100905       0.22239657
O        1.76889945       7.14061330       7.39106174       57       0.01278448       0.01096976      -0.03510436
O        8.10018066       4.40549569       2.18660228       58      -0.03512222       0.03084749       0.09774548
O        4.44903659       5.48282171       1.55510862       59       0.05159594      -0.04936878      -0.12556028
O        5.41418713       6.07029221       8.02670989       60      -0.05108566       0.11670223       0.09667377
O        7.42387669       9.03413958       5.49976169       61      -0.02513386       0.15520617       0.11677557
O        2.43879107       2.52458063       4.07239495       62      -0.00097810      -0.12686217      -0.03255695
O        7.59788408       8.35205560       3.41647643       63      -0.13210890       0.06333326       0.00520271
O        2.26508304       3.20439012       6.15735326       64      -0.00064415      -0.05143130       0.14255142
65
Lattice="8.41044668 0.0 0.0 1.027466751864536 8.37710604750475 0.0 0.42146254656739246 3.176171543626793 9.572282691767006" Properties=species:S:1:pos:R:3:spacegroup_kinds:I:1:forces:R:3 spacegroup="P 1" unit_cell=conventional occupancy="_JSON {\"0\": {\"Cu\": 1}, \"1\": {\"Cu\": 1}, \"2\": {\"Cu\": 1}, \"3\": {\"H\": 1}, \"4\": {\"H\": 1}, \"5\": {\"H\": 1}, \"6\": {\"H\": 1}, \"7\": {\"H\": 1}, \"8\": {\"H\": 1}, \"9\": {\"H\": 1}, \"10\": {\"H\": 1}, \"11\": {\"H\": 1}, \"12\": {\"H\": 1}, \"13\": {\"H\": 1}, \"14\": {\"H\": 1}, \"15\": {\"H\": 1}, \"16\": {\"H\": 1}, \"17\": {\"H\": 1}, \"18\": {\"H\": 1}, \"19\": {\"C\": 1}, \"20\": {\"C\": 1}, \"21\": {\"C\": 1}, \"22\": {\"C\": 1}, \"23\": {\"C\": 1}, \"24\": {\"C\": 1}, \"25\": {\"C\": 1}, \"26\": {\"C\": 1}, \"27\": {\"C\": 1}, \"28\": {\"C\": 1}, \"29\": {\"C\": 1}, \"30\": {\"C\": 1}, \"31\": {\"C\": 1}, \"32\": {\"C\": 1}, \"33\": {\"C\": 1}, \"34\": {\"C\": 1}, \"35\": {\"C\": 1}, \"36\": {\"C\": 1}, \"37\": {\"C\": 1}, \"38\": {\"C\": 1}, \"39\": {\"C\": 1}, \"40\": {\"C\": 1}, \"41\": {\"C\": 1}, \"42\": {\"C\": 1}, \"43\": {\"N\": 1}, \"44\": {\"N\": 1}, \"45\": {\"N\": 1}, \"46\": {\"N\": 1}, \"47\": {\"N\": 1}, \"48\": {\"N\": 1}, \"49\": {\"N\": 1}, \"50\": {\"N\": 1}, \"51\": {\"O\": 1}, \"52\": {\"O\": 1}, \"53\": {\"O\": 1}, \"54\": {\"O\": 1}, \"55\": {\"O\": 1}, \"56\": {\"O\": 1}, \"57\": {\"O\": 1}, \"58\": {\"O\": 1}, \"59\": {\"O\": 1}, \"60\": {\"O\": 1}, \"61\": {\"O\": 1}, \"62\": {\"O\": 1}, \"63\": {\"O\": 1}, \"64\": {\"O\": 1}}" energy=-443.8984375 free_energy=-443.8984375 stress="-0.012191889807581902 -0.002055470133200288 -0.0017659736331552267 -0.002055470133200288 -0.008611929602921009 0.0025450894609093666 -0.0017659736331552267 0.0025450894609093666 -0.0004950700676999986" pbc="T T T"
Cu       4.72426738       4.18432338      -0.00188157        0      -0.06624773       0.02556862       0.06917268
Cu       0.85017628       5.30266883       3.35441268        1       0.11958338       0.14363283       0.05343628
Cu       9.00509390       6.23667177       6.24109677        2       0.08966557      -0.10530329      -0.15640378
H        5.74910876       7.05995252       2.58959509        3       0.16580963       0.07803103      -0.06443854