82
Lattice="8.63609752 0.0 0.0 2.237643753597381 10.078020164248462 0.0 4.1536399301173255 0.26301730797512624 10.32235605533599" Properties=species:S:1:pos:R:3:spacegroup_kinds:I:1:forces:R:3 spacegroup="P 1" unit_cell=conventional occupancy="_JSON {\"0\": {\"Cd\": 1}, \"1\": {\"Cd\": 1}, \"2\": {\"H\": 1}, \"3\": {\"H\": 1}, \"4\": {\"H\": 1}, \"5\": {\"H\": 1}, \"6\": {\"H\": 1}, \"7\": {\"H\": 1}, \"8\": {\"H\": 1}, \"9\": {\"H\": 1}, \"10\": {\"H\": 1}, \"11\": {\"H\": 1}, \"12\": {\"H\": 1}, \"13\": {\"H\": 1}, \"14\": {\"H\": 1}, \"15\": {\"H\": 1}, \"16\": {\"H\": 1}, \"17\": {\"H\": 1}, \"18\": {\"H\": 1}, \"19\": {\"H\": 1}, \"20\": {\"H\": 1}, \"21\": {\"H\": 1}, \"22\": {\"H\": 1}, \"23\": {\"H\": 1}, \"24\": {\"H\": 1}, \"25\": {\"H\": 1}, \"26\": {\"H\": 1}, \"27\": {\"H\": 1}, \"28\": {\"H\": 1}, \"29\": {\"H\": 1}, \"30\": {\"H\": 1}, \"31\": {\"H\": 1}, \"32\": {\"H\": 1}, \"33\": {\"H\": 1}, \"34\": {\"C\": 1}, \"35\": {\"C\": 1}, \"36\": {\"C\": 1}, \"37\": {\"C\": 1}, \"38\": {\"C\": 1}, \"39\": {\"C\": 1}, \"40\": {\"C\": 1}, \"41\": {\"C\": 1}, \"42\": {\"C\": 1}, \"43\": {\"C\": 1}, \"44\": {\"C\": 1}, \"45\": {\"C\": 1}, \"46\": {\"C\": 1}, \"47\": {\"C\": 1}, \"48\": {\"C\": 1}, \"49\": {\"C\": 1}, \"50\": {\"C\": 1}, \"51\": {\"C\": 1}, \"52\": {\"C\": 1}, \"53\": {\"C\": 1}, \"54\": {\"C\": 1}, \"55\": {\"C\": 1}, \"56\": {\"C\": 1}, \"57\": {\"C\": 1}, \"58\": {\"C\": 1}, \"59\": {\"C\": 1}, \"60\": {\"C\": 1}, \"61\": {\"C\": 1}, \"62\": {\"C\": 1}, \"63\": {\"C\": 1}, \"64\": {\"C\": 1}, \"65\": {\"C\": 1}, \"66\": {\"C\": 1}, \"67\": {\"C\": 1}, \"68\": {\"C\": 1}, \"69\": {\"C\": 1}, \"70\": {\"N\": 1}, \"71\": {\"N\": 1}, \"72\": {\"N\": 1}, \"73\": {\"N\": 1}, \"74\": {\"O\": 1}, \"75\": {\"O\": 1}, \"76\": {\"O\": 1}, \"77\": {\"O\": 1}, \"78\": {\"O\": 1}, \"79\": {\"O\": 1}, \"80\": {\"O\": 1}, \"81\": {\"O\": 1}}" energy=-540.6187744140625 free_energy=-540.6187744140625 stress="3.0354249247466214e-05 -0.0013033384457230568 0.002639598213136196 -0.0013033384457230568 -0.004110847134143114 -0.0012665500398725271 0.002639598213136196 -0.0012665500398725271 -0.0006669565918855369" pbc="T T T"
Cd       5.64809832       5.77370797       1.67654176        0      -0.24723312       0.13516387      -0.29211104
Cd       9.37835149       4.57029683       8.64487014        1       0.24570011      -0.14565855       0.29111761
H        6.70923303       8.86294887       2.34802070        2      -0.02501985       0.04008626      -0.01132431
H        8.31441807       1.48021085       7.97214465        3       0.05162150      -0.06174842       0.02562717
H        8.40708775      10.04254420       3.78592722        4      -0.01033928       0.00120570      -0.03230431
H        6.61727348       0.30023496       6.53346353        5       0.01667083      -0.03716135       0.03445893
H       10.06795846       8.65379821       5.08071129        6       0.04041177       0.02924200       0.04804898
H        4.95824597       1.68838778       5.23941698        7      -0.03742054      -0.02598687      -0.03680851
H       10.83734149       6.37994891       5.81478578        8       0.02991617      -0.00859730       0.01941542
H        4.18634243       3.96220117       4.50574398        9       0.01452189       0.03456436       0.01732959
H       10.67276952       3.92831437       5.62350382       10       0.03371639       0.01731981       0.02516115
H        4.35205830       6.41376113       4.69614324       11      -0.02468038      -0.02593673      -0.02003834
H        9.65512206       1.92322967       4.52005986       12       0.03789906      -0.00854678       0.00768029
H        5.36911505       8.42026945       5.79998276       13       0.01027037      -0.02789992       0.02805924
H        7.92279429       0.98938668       2.96003395       14      -0.02113473      -0.00894663       0.00567693
H        7.10139819       9.35323204       7.36044570       15       0.02997234       0.02266231       0.00335014
H        6.29004953       2.55876241       1.86447302       16      -0.07160075      -0.02665281      -0.03319498
H        8.73406213       7.78463398       8.45560363       17       0.11068568       0.02789897       0.05890293
H        1.47523393       3.15094296       1.48420099       18       0.05120284      -0.07847553      -0.00773083
H       13.54863956       7.19198084       8.83587822       19      -0.01694601       0.08778389      -0.02421658
H        2.37368591       2.52544690       0.09730630       20      -0.01264986      -0.01353582      -0.00377590
H       12.65172200       7.81652809      10.22372164       21       0.01934914      -0.00541618      -0.00954995
H        6.10372592       4.84719073       9.12493307       22      -0.04686634      -0.04655610      -0.00120834
H        8.92209791       5.49640997       1.19454202       23       0.01806543       0.03067136       0.01935131
H       13.21523109       4.11416347       9.63426064       24      -0.03305709      -0.03525037      -0.03970369
H        1.80901455       6.22762853       0.68646426       25       0.01817266       0.01697376       0.02240548
H       11.01276464       9.10789595       2.16879971       26       0.03400426       0.02960149       0.04254192
H        4.01242432       1.23441500       8.15132344       27      -0.05016947      -0.02197520      -0.04279387
H        1.51498935       0.10325949       1.84697632       28       0.01244080      -0.06412480      -0.01651764
H       13.51056971      10.24017437       8.47263280       29      -0.03398209       0.02326596       0.00363256
H        6.43677138       8.84072152      10.00392641       30       0.04109483       0.02105423      -0.02966870
H        8.58632061       1.50286687       0.31626631       31      -0.03106814      -0.02178933       0.02293848
H        7.76816367       9.96344384       9.74188591       32       0.04621134      -0.02423982      -0.02529230
H        7.25562418       0.38037180       0.57830817       33      -0.01046950       0.02292535      -0.00064943
C        8.09380365       4.77911288       3.50210868       34       0.08119363       0.07830434       0.05397916
C        6.93223431       5.56270153       6.81888651       35      -0.13789846      -0.05954674      -0.09207995
C        8.20089977       6.21442294       3.60294297       36       0.03474789      -0.04588690       0.03869681
C        6.82640980       4.12673810       6.71742085       37      -0.12802728       0.08681637      -0.08737127
C        7.42361439       8.30686106       2.95651204       38      -0.03674361       0.07750431      -0.03569886
C        7.60176577       2.03490165       7.36227565       39       0.04226257      -0.07543617       0.06220117
C        8.38797640       8.95360694       3.74816047       40       0.01130647      -0.00069883       0.00131993
C        6.63814096       1.38797280       6.57225725       41      -0.04476072       0.03861272      -0.02508755
C        9.29325269       8.19183242       4.46877887       42      -0.10215110       0.05984683      -0.08744314
C        5.73194392       2.15073181       5.85298560       43       0.08351675      -0.11521940       0.05442156
C        9.21948887       6.78152074       4.41071587       44      -0.02702042       0.13582948      -0.08205240
C        5.80524616       3.55935481       5.91002224       45       0.07429858      -0.04941914       0.10708649
C       10.10638439       5.93244757       5.14228160       46      -0.07492858      -0.04834834      -0.05241644
C        4.91942701       4.41025401       5.17871408       47       0.02037942      -0.01840195       0.00782966
C       10.01288078       4.57341729       5.04111015       48      -0.08668736       0.01588047       0.05702370
C        5.01271895       5.76882756       5.27862725       49       0.08922485       0.02167159      -0.04482207
C        9.02721474       3.96772621       4.19787579       50      -0.00887096      -0.10281222      -0.09510002
C        5.99750803       6.37543234       6.12268001       51       0.05945493       0.05599239       0.11575136
C        8.94275410       2.57146323       4.00802442       52      -0.04413389      -0.03849930      -0.09419689
C        6.08343541       7.77138377       6.31318370       53      -0.02942815       0.06512748       0.05023275
C        7.97826770       2.05699620       3.16217428       54      -0.06384364      -0.06787488      -0.13362364
C        7.04719523       8.28585250       7.15945462       55       0.08150230       0.03829876       0.12224895
C        7.06681055       2.92654078       2.53710354       56       0.00860335      -0.09918675      -0.03565073
C        7.95986055       7.41560250       7.78286762       57      -0.07775460       0.12336698       0.02248354
C        3.38030210       4.05632918       1.16342730       58       0.05873933      -0.11888982       0.19392620
C       11.64461467       6.28561444       9.15640050       59      -0.00512257       0.13376868      -0.09242895
C        2.09061590       3.45179944       0.62601748       60      -0.08159441      -0.01622942       0.01520148
C       12.93573033       6.89032030       9.69356107       61       0.00505479       0.02202612       0.01296662
C        5.47560865       4.63698852      10.00097938       62      -0.00300557      -0.04897449      -0.00272527
C        9.54845752       5.70426329       0.31801860       63       0.07217107       0.07704312       0.01212525
C        4.17054867       8.09985162       1.60479393       64       0.05250636       0.14867432      -0.02349749
C       10.85237235       2.24163860       8.71576827       65      -0.02710968      -0.06811836      -0.06622219
C        3.22214644       9.28141794       1.48804164       66       0.02646852       0.00933474       0.03513387
C       11.80195153       1.06102485       8.83130729       67       0.00545533       0.02624341      -0.01482184
C        2.73986657       9.50702730       0.05752165       68      -0.01584745      -0.06558269       0.07008438
C       12.28530560       0.83596067      10.26175054       69      -0.03948506       0.06376304      -0.03747083
N        7.33657305       6.98017797       2.89095986       70       0.08384308      -0.01501700       0.14090599
N        7.68842112       3.36157576       7.42865064       71      -0.02951881       0.00561759      -0.11072117
N        7.12344884       4.24757509       2.71572179       72       0.12545992      -0.00250380       0.05817945
N        7.90078648       6.09462845       7.60587084       73      -0.08601199       0.00045027      -0.05318862
O        3.74699129       3.85832676       2.34790438       74      -0.07339876       0.01976700      -0.08995906
O       11.27813440       6.48377577       7.97335761       75       0.03817224      -0.02382329       0.02750644
O        4.05710963       4.80064360       0.34631365       76      -0.11299784       0.10982886      -0.06841531
O       10.96911917       5.54302975       9.97679271       77       0.10583372      -0.11073819       0.03042713
O        5.04293048       7.92559820       0.68836590       78      -0.03729236       0.05185494       0.02704197
O        9.98071913       2.41727309       9.63209104       79       0.04071352      -0.06064484      -0.02912244
O        4.05137869       7.31678996       2.60822692       80       0.05778131      -0.03048041       0.04496402
O       10.97196028       3.02632619       7.71068914       81      -0.07434723      -0.03521216       0.04356992
82
Lattice="8.63609752 0.0 0.0 2.237643753597381 10.078020164248462 0.0 4.1536399301173255 0.26301730797512624 10.32235605533599" Properties=species:S:1:pos:R:3:spacegroup_kinds:I:1:forces:R:3 spacegroup="P 1" unit_cell=conventional occupancy="_JSON {\"0\": {\"Cd\": 1}, \"1\": {\"Cd\": 1}, \"2\": {\"H\": 1}, \"3\": {\"H\": 1}, \"4\": {\"H\": 1}, \"5\": {\"H\": 1}, \"6\": {\"H\": 1}, \"7\": {\"H\": 1}, \"8\": {\"H\": 1}, \"9\": {\"H\": 1}, \"10\": {\"H\": 1}, \"11\": {\"H\": 1}, \"12\": {\"H\": 1}, \"13\": {\"H\": 1}, \"14\": {\"H\": 1}, \"15\": {\"H\": 1}, \"16\": {\"H\": 1}, \"17\": {\"H\": 1}, \"18\": {\"H\": 1}, \"19\": {\"H\": 1}, \"20\": {\"H\": 1}, \"21\": {\"H\": 1}, \"22\": {\"H\": 1}, \"23\": {\"H\": 1}, \"24\": {\"H\": 1}, \"25\": {\"H\": 1}, \"26\": {\"H\": 1}, \"27\": {\"H\": 1}, \"28\": {\"H\": 1}, \"29\": {\"H\": 1}, \"30\": {\"H\": 1}, \"31\": {\"H\": 1}, \"32\": {\"H\": 1}, \"33\": {\"H\": 1}, \"34\": {\"C\": 1}, \"35\": {\"C\": 1}, \"36\": {\"C\": 1}, \"37\": {\"C\": 1}, \"38\": {\"C\": 1}, \"39\": {\"C\": 1}, \"40\": {\"C\": 1}, \"41\": {\"C\": 1}, \"42\": {\"C\": 1}, \"43\": {\"C\": 1}, \"44\": {\"C\": 1}, \"45\": {\"C\": 1}, \"46\": {\"C\": 1}, \"47\": {\"C\": 1}, \"48\": {\"C\": 1}, \"49\": {\"C\": 1}, \"50\": {\"C\": 1}, \"51\": {\"C\": 1}, \"52\": {\"C\": 1}, \"53\": {\"C\": 1}, \"54\": {\"C\": 1}, \"55\": {\"C\": 1}, \"56\": {\"C\": 1}, \"57\": {\"C\": 1}, \"58\": {\"C\": 1}, \"59\": {\"C\": 1}, \"60\": {\"C\": 1}, \"61\": {\"C\": 1}, \"62\": {\"C\": 1}, \"63\": {\"C\": 1}, \"64\": {\"C\": 1}, \"65\": {\"C\": 1}, \"66\": {\"C\": 1}, \"67\": {\"C\": 1}, \"68\": {\"C\": 1}, \"69\": {\"C\": 1}, \"70\": {\"N\": 1}, \"71\": {\"N\": 1}, \"72\": {\"N\": 1}, \"73\": {\"N\": 1}, \"74\": {\"O\": 1}, \"75\": {\"O\": 1}, \"76\": {\"O\": 1}, \"77\": {\"O\": 1}, \"78\": {\"O\": 1}, \"79\": {\"O\": 1}, \"80\": {\"O\": 1}, \"81\": {\"O\": 1}}" energy=-540.629638671875 free_energy=-540.629638671875 stress="-4.8926216550171375e-05 -0.0011079367250204086 0.002622410887852311 -0.0011079367250204086 -0.003648752346634865 -0.0011408427963033319 0.002622410887852311 -0.0011408427963033319 -0.000872903736308217" pbc="T T T"
Cd       5.64517941       5.77663471       1.67366066        0      -0.21605983       0.11378144      -0.27745628
Cd       9.38074237       4.56792896       8.64568790        1       0.19466728      -0.11404940       0.27476659
H        6.70642580       8.86469685       2.34549391        2      -0.01677901       0.03150160      -0.00812064
H        8.31501022       1.47816824       7.97088315        3       0.04478935      -0.04543652       0.02223547
H        8.40528909      10.04389818       3.78305164        4      -0.00167436      -0.01661730      -0.02199800
H        6.61648697       0.29975623       6.53328569        5       0.01396215       0.02197990       0.03109313
H       10.06691601       8.65544081       5.08060294        6      -0.00949146       0.00063847       0.00898467
H        4.95563836       1.68866443       5.23785750        7       0.01841870      -0.00413619       0.00916842
H       10.83613069       6.38077916       5.81468013        8      -0.02838776      -0.04215912      -0.03353934
H        4.18604485       3.96362576       4.50510148        9      -0.00976016       0.02180853      -0.00293198
H       10.67179678       3.92988608       5.62277108       10       0.02299374       0.02739138       0.02443990
H        4.34961138       6.41487760       4.69467374       11       0.01403312      -0.05031537      -0.00015940
H        9.65443224       1.92333097       4.51879360       12       0.00654083       0.01307714      -0.01581550
H        5.36759767       8.42057640       5.80071016       13      -0.00199293      -0.00945878       0.01698825
H        7.92126692       0.98892247       2.95832625       14      -0.01989695      -0.01497295       0.00557970
H        7.10057127       9.35435138       7.35859799       15       0.03811586       0.05277660       0.01913984
H        6.28715578       2.55870764       1.86212687       16      -0.04570569      -0.01634277      -0.01597787
H        8.73574444       7.78576684       8.45601878       17       0.04469382      -0.00135846       0.00060320
H        1.47582615       3.14983557       1.48259014       18       0.01058001      -0.08192126       0.02496464
H       13.54701952       7.19449337       8.83313793       19      -0.03376267       0.07830239       0.00457120
H        2.37259906       2.52597477       0.09641991       20      -0.01486638      -0.00662643      -0.00534169
H       12.65069342       7.81701967      10.22216513       21       0.01155116       0.02144039       0.00458659
H        6.10143145       4.84753331       9.12377799       22      -0.02436639      -0.04830893      -0.01313600
H        8.92026238       5.49785128       1.19271180       23       0.04874140       0.04099170      -0.00510883
H       13.21395840       4.11344851       9.63180684       24      -0.02128623      -0.01028868      -0.02068689
H        1.80670497       6.22988250       0.68466411       25       0.09783543       0.05223203       0.04784742
H       11.01218591       9.10983197       2.16895063       26       0.04852416       0.03100265       0.03177275
H        4.01004096       1.23514471       8.14925517       27      -0.05073107      -0.02161927      -0.03801094
H        1.51409073       0.10243321       1.84544739       28       0.04847586       0.01105607       0.00758008
H       13.50852760      10.24122351       8.47140290       29      -0.02845112       0.02456962       0.00813428
H        6.43638143       8.84266027      10.00340273       30       0.02220798      -0.02065856      -0.03629440
H        8.58388680       1.50354684       0.31424329       31      -0.01394156       0.01832975       0.03566856
H        7.76728301       9.96329296       9.74091464       32       0.04393124      -0.02178813      -0.01982868
H        7.25361578       0.38224578       0.57640089       33      -0.01361478       0.02279275       0.00127125
C        8.09469498       4.78109028       3.50226214       34       0.00068243      -0.03864166      -0.02831487
C        6.92924028       5.56125963       6.81625242       35      -0.03903937       0.13530800       0.01159710
C        8.20155638       6.21486441       3.60270965       36      -0.04299460       0.02103198      -0.01168042
C        6.82352011       4.12949600       6.71523992       37      -0.04840104      -0.12077636      -0.03059070
C        7.42160456       8.30927966       2.95390237       38       0.01059902      -0.05039984       0.01931417
C        7.60189956       2.03350058       7.36169371       39       0.01136546       0.06630027       0.03293832
C        8.38701821       8.95426217       3.74732653       40      -0.07857953       0.07703900      -0.08040491
C        6.63717725       1.38950228       6.57132898       41       0.00620425      -0.13954005       0.01859901
C        9.29068884       8.19323350       4.46697280       42      -0.00070738       0.08431184      -0.00838355
C        5.73159044       2.14981803       5.85348345       43      -0.01715226      -0.06660079      -0.03004891
C        9.21711922       6.78419279       4.40837647       44       0.05653305       0.05545896      -0.01246875
C        5.80520714       3.55827902       5.91039733       45      -0.04265912       0.03158805       0.01405445
C       10.10364981       5.93261004       5.14008018       46      -0.01569631       0.06322165       0.01151387
C        4.91816690       4.41112624       5.17779197       47       0.09715120      -0.03664279       0.05405181
C       10.01043632       4.57459571       5.04096506       48      -0.08628749      -0.05737621       0.02306051
C        5.01336848       5.76997701       5.27632041       49       0.04819244       0.03823510      -0.02775442
C        9.02608316       3.96690922       4.19545847       50       0.03400587      -0.05523213      -0.03416891
C        5.99668082       6.37695633       6.12415021       51      -0.02470990       0.05343723       0.00393250
C        8.94100960       2.57162314       4.00537728       52      -0.00642613      -0.07225860      -0.06899001
C        6.08223665       7.77301110       6.31325944       53       0.03629885       0.03710430       0.11659262
C        7.97642090       2.05659299       3.15946566       54      -0.03599886      -0.09981143      -0.11255404
C        7.04755250       8.28726844       7.16090654       55      -0.04089569       0.06710139       0.00907781
C        7.06585834       2.92449214       2.53498061       56      -0.01210837       0.08174352      -0.03313977
C        7.95873574       7.41834383       7.78116482       57       0.02124232       0.01703671       0.10649301
C        3.37884607       4.05652358       1.16349394       58       0.01227507      -0.02863219      -0.03032195
C       11.64257095       6.28813148       9.15383471       59       0.05600110       0.08330622       0.01355173
C        2.08811010       3.45248106       0.62476281       60      -0.00600462      -0.03340939      -0.00570033
C       12.93413798       6.89182687       9.69202699       61       0.05548166       0.02167153      -0.02721396
C        5.47437922       4.63714352       9.99970768       62      -0.03696501      -0.01996433       0.00520191
C        9.54962948       5.70667379       0.31693946       63      -0.08373642      -0.00720483      -0.02230367
C        4.17012884       8.10244812       1.60317243       64       0.01665714       0.11221203       0.03603847
C       10.85029536       2.24099890       8.71377904       65      -0.00887528      -0.05071303      -0.05894975
C        3.22177193       9.28337224       1.48750464       66      -0.03057706      -0.05562285       0.02950922
C       11.79996580       1.06234746       8.83009601       67       0.01708563      -0.00747593      -0.05270478
C        2.73943405       9.50699943       0.05743544       68      -0.04978747       0.03966405       0.04204215
C       12.28292883       0.83837810      10.25974864       69       0.00164505      -0.03245252      -0.01553008
N        7.33609661       6.98006601       2.89122422       70       0.04873738       0.08285078       0.09991841
N        7.68625578       3.36210856       7.42609316       71       0.00846538      -0.02853674      -0.07893032
N        7.12427374       4.24865599       2.71476743       72       0.10574980      -0.08188428       0.04303998
N        7.89786542       6.09629702       7.60347145       73      -0.05526519      -0.03091628      -0.04211850
O        3.74404177       3.86086892       2.34513224       74      -0.01484514      -0.01501805       0.07257596
O       11.27740196       6.48463266       7.97193793       75       0.00042388      -0.00680140      -0.04544707
O        4.05422900       4.80328102       0.34378395       76      -0.12877771       0.05871311      -0.01708871
O       10.97035296       5.54358240       9.97588456       77       0.08069451      -0.09719363       0.01598203
O        5.04054359       7.92820459       0.68615887       78      -0.00450799       0.04657659       0.00674140
O        9.98000500       2.41681233       9.63001573       79      -0.00601128      -0.06803817       0.01886863
O        4.05109092       7.31849738       2.60717486       80       0.06571823      -0.00104113       0.00966686
O       10.96901889       3.02742835       7.71072993       81      -0.05349433      -0.02934402      -0.00454330
82
Lattice="8.63609752 0.0 0.0 2.237643753597381 10.078020164248462 0.0 4.1536399301173255 0.26301730797512624 10.32235605533599" Properties=species:S:1:pos:R:3:spacegroup_kinds:I:1:forces:R:3 spacegroup="P 1" unit_cell=conventional occupancy="_JSON {\"0\": {\"Cd\": 1}, \"1\": {\"Cd\": 1}, \"2\": {\"H\": 1}, \"3\": {\"H\": 1}, \"4\": {\"H\": 1}, \"5\": {\"H\": 1}, \"6\": {\"H\": 1}, \"7\": {\"H\": 1}, \"8\": {\"H\": 1}, \"9\": {\"H\": 1}, \"10\": {\"H\": 1}, \"11\": {\"H\": 1}, \"12\": {\"H\": 1}, \"13\": {\"H\": 1}, \"14\": {\"H\": 1}, \"15\": {\"H\": 1}, \"16\": {\"H\": 1}, \"17\": {\"H\": 1}, \"18\": {\"H\": 1}, \"19\": {\"H\": 1}, \"20\": {\"H\": 1}, \"21\": {\"H\": 1}, \"22\": {\"H\": 1}, \"23\": {\"H\": 1}, \"24\": {\"H\": 1}, \"25\": {\"H\": 1}, \"26\": {\"H\": 1}, \"27\": {\"H\": 1}, \"28\": {\"H\": 1}, \"29\": {\"H\": 1}, \"30\": {\"H\": 1}, \"31\": {\"H\": 1}, \"32\": {\"H\": 1}, \"33\": {\"H\": 1}, \"34\": {\"C\": 1}, \"35\": {\"C\": 1}, \"36\": {\"C\": 1}, \"37\": {\"C\": 1}, \"38\": {\"C\": 1}, \"39\": {\"C\": 1}, \"40\": {\"C\": 1}, \"41\": {\"C\": 1}, \"42\": {\"C\": 1}, \"43\": {\"C\": 1}, \"44\": {\"C\": 1}, \"45\": {\"C\": 1}, \"46\": {\"C\": 1}, \"47\": {\"C\": 1}, \"48\": {\"C\": 1}, \"49\": {\"C\": 1}, \"50\": {\"C\": 1}, \"51\": {\"C\": 1}, \"52\": {\"C\": 1}, \"53\": {\"C\": 1}, \"54\": {\"C\": 1}, \"55\": {\"C\": 1}, \"56\": {\"C\": 1}, \"57\": {\"C\": 1}, \"58\": {\"C\": 1}, \"59\": {\"C\": 1}, \"60\": {\"C\": 1}, \"61\": {\"C\": 1}, \"62\": {\"C\": 1}, \"63\": {\"C\": 1}, \"64\": {\"C\": 1}, \"65\": {\"C\": 1}, \"66\": {\"C\": 1}, \"67\": {\"C\": 1}, \"68\": {\"C\": 1}, \"69\": {\"C\": 1}, \"70\": {\"N\": 1}, \"71\": {\"N\": 1}, \"72\": {\"N\": 1}, \"73\": {\"N\": 1}, \"74\": {\"O\": 1}, \"75\": {\"O\": 1}, \"76\": {\"O\": 1}, \"77\": {\"O\": 1}, \"78\": {\"O\": 1}, \"79\": {\"O\": 1}, \"80\": {\"O\": 1}, \"81\": {\"O\": 1}}" energy=-540.6370849609375 free_energy=-540.6370849609375 stress="0.0001139843589044176 -0.0010141286766156554 0.002601828658953309 -0.0010141286766156554 -0.003303107339888811 -0.0012471700320020318 0.002601828658953309 -0.0012471700320020318 -0.0006000463617965579" pbc="T T T"
Cd       5.64232567       5.77955045       1.67071345        0      -0.19031715       0.09772868      -0.26095396
Cd       9.38308586       4.56943605       8.64833318        1       0.15222761      -0.11981520       0.24752013
H        6.70407944       8.86623007       2.34265534        2       0.05056778      -0.02498325       0.04855244
H        8.31429579       1.47722482       7.96987044        3       0.03255609      -0.02124269       0.01007506
H        8.40351185      10.04444619       3.78214347        4      -0.01178545       0.02195919      -0.03124622
H        6.61557939       0.30112322       6.53330229        5       0.01033465      -0.05293459       0.02513223
H       10.06568846       8.65618492       5.07974746        6      -0.02260734       0.01102544      -0.00107121
H        4.95477172       1.68862747       5.23699025        7      -0.00396746      -0.01497662      -0.00912378
H       10.83452250       6.38108466       5.81301991        8      -0.00590834      -0.02796605      -0.00624512
H        4.18435876       3.96543154       4.50452988        9       0.00781490       0.02210123       0.00593276
H       10.67074232       3.93155145       5.62205457       10       0.01436044       0.02656093       0.02506397
H        4.34863135       6.41458096       4.69427288       11       0.01332305      -0.04403691      -0.00900891
H        9.65299233       1.92397750       4.51740308       12       0.00626753       0.00498962      -0.01688250
H        5.36672333       8.42147815       5.80018162       13      -0.00988474       0.00087193       0.01290738
H        7.91976840       0.98874062       2.95668527       14      -0.01871725      -0.02083869       0.00218723
H        7.10002529       9.35676657       7.35856047       15       0.03507236       0.04472703       0.01724983
H        6.28494178       2.55828384       1.86050474       16      -0.02064128       0.00529020       0.00237261
H        8.73492278       7.78758885       8.45416452       17       0.05798676      -0.00470926       0.01671449
H        1.47572030       3.14829435       1.48179355       18       0.00823390      -0.06823123       0.01327590
H       13.54409256       7.19709310       8.83197473       19       0.01274241       0.09307146      -0.04068299
H        2.37128536       2.52622658       0.09585945       20      -0.01331070       0.00317375      -0.01072139
H       12.64911733       7.81796513      10.22089289       21       0.01511219       0.02834178       0.00680617
H        6.09974962       4.84733044       9.12324856       22      -0.01382122      -0.04320186      -0.03189290
H        8.92042768       5.49979534       1.19167757       23       0.02320004       0.03992756      -0.00064190
H       13.21139308       4.11415386       9.63026460       24      -0.00506707      -0.00786998      -0.01317925
H        1.80676516       6.23254917       0.68393887       25       0.02168921       0.00438923       0.00870760
H       11.01223257       9.11080677       2.16850072       26       0.03125612       0.02909136       0.04463506
H        4.00707085       1.23575487       8.14661595       27      -0.01077802      -0.01792171      -0.06336376
H        1.51346077       0.10326651       1.84501498       28       0.04556675       0.01757625       0.00500003
H       13.50616447      10.24335675       8.46884789       29      -0.03398648      -0.00958841      -0.00013989
H        6.43556293       8.84294482      10.00165098       30       0.02475468      -0.01264667      -0.02286591
H        8.58157288       1.50430856       0.31230755       31      -0.01332420       0.01731138       0.03192842
H        7.76701242       9.96344779       9.73895448       32       0.00046058      -0.02767278       0.01686199
H        7.25168835       0.38272535       0.57465986       33      -0.00372161       0.02705386      -0.01470509
C        8.09443310       4.78184571       3.50089274       34       0.00378050      -0.07101548      -0.02875908
C        6.92800245       5.56300914       6.81508326       35      -0.05690458       0.05044660       0.00533728
C        8.20006169       6.21569156       3.60123846       36       0.00980514       0.01837751       0.03361779
C        6.82103668       4.12889397       6.71321315       37       0.01830535      -0.02856103       0.02430548
C        7.42142098       8.30912850       2.95296294       38      -0.11985585       0.05468503      -0.07930204
C        7.60160951       2.03452097       7.36057078       39      -0.02767145       0.01013595       0.00927836
C        8.38412738       8.95609355       3.74489961       40      -0.00096578       0.03405899      -0.02232839
C        6.63534160       1.38857968       6.57014662       41       0.04567578      -0.01075783       0.04657443