68
Lattice="13.97746025 0.0 0.0 -2.0346285431679485 14.645423794054933 0.0 -0.035739268865974574 0.04142268447260268 16.194372767480207" Properties=species:S:1:pos:R:3:spacegroup_kinds:I:1:forces:R:3 spacegroup="P 1" unit_cell=conventional occupancy="_JSON {\"0\": {\"Zn\": 1}, \"1\": {\"Zn\": 1}, \"2\": {\"H\": 1}, \"3\": {\"H\": 1}, \"4\": {\"H\": 1}, \"5\": {\"H\": 1}, \"6\": {\"H\": 1}, \"7\": {\"H\": 1}, \"8\": {\"H\": 1}, \"9\": {\"H\": 1}, \"10\": {\"H\": 1}, \"11\": {\"H\": 1}, \"12\": {\"H\": 1}, \"13\": {\"H\": 1}, \"14\": {\"H\": 1}, \"15\": {\"H\": 1}, \"16\": {\"H\": 1}, \"17\": {\"H\": 1}, \"18\": {\"H\": 1}, \"19\": {\"H\": 1}, \"20\": {\"H\": 1}, \"21\": {\"H\": 1}, \"22\": {\"H\": 1}, \"23\": {\"H\": 1}, \"24\": {\"C\": 1}, \"25\": {\"C\": 1}, \"26\": {\"C\": 1}, \"27\": {\"C\": 1}, \"28\": {\"C\": 1}, \"29\": {\"C\": 1}, \"30\": {\"C\": 1}, \"31\": {\"C\": 1}, \"32\": {\"C\": 1}, \"33\": {\"C\": 1}, \"34\": {\"C\": 1}, \"35\": {\"C\": 1}, \"36\": {\"C\": 1}, \"37\": {\"C\": 1}, \"38\": {\"C\": 1}, \"39\": {\"C\": 1}, \"40\": {\"C\": 1}, \"41\": {\"C\": 1}, \"42\": {\"C\": 1}, \"43\": {\"C\": 1}, \"44\": {\"C\": 1}, \"45\": {\"C\": 1}, \"46\": {\"C\": 1}, \"47\": {\"C\": 1}, \"48\": {\"C\": 1}, \"49\": {\"C\": 1}, \"50\": {\"C\": 1}, \"51\": {\"C\": 1}, \"52\": {\"C\": 1}, \"53\": {\"C\": 1}, \"54\": {\"C\": 1}, \"55\": {\"C\": 1}, \"56\": {\"C\": 1}, \"57\": {\"C\": 1}, \"58\": {\"N\": 1}, \"59\": {\"N\": 1}, \"60\": {\"O\": 1}, \"61\": {\"O\": 1}, \"62\": {\"O\": 1}, \"63\": {\"O\": 1}, \"64\": {\"O\": 1}, \"65\": {\"O\": 1}, \"66\": {\"O\": 1}, \"67\": {\"O\": 1}}" energy=-457.1778564453125 free_energy=-457.1778564453125 stress="0.0005439290544018149 0.0001328376674791798 9.154337021755055e-06 0.0001328376674791798 -0.001218475284986198 -9.948197839548811e-05 9.154337021755055e-06 -9.948197839548811e-05 0.000777636596467346" pbc="T T T"
Zn       6.13548837       5.94704685       8.10098653        0      -0.10474631       0.48705336      -0.00075418
Zn       5.77208527       8.74228967       8.08942557        1       0.10361922      -0.50074488       0.03699181
H       12.76726684       5.81108778       8.10449469        2       0.01412790      -0.00127585      -0.01306332
H        7.52508975       2.28485034       2.97355551        3      -0.03905666      -0.04670125       0.03120520
H        6.78499009       0.93176934       2.09666707        4      -0.01482529      -0.00639977      -0.02693917
H        7.79211144       0.10486173       4.23076197        5       0.03823707      -0.06355724       0.00750089
H        4.00202911      14.54951711       4.25005092        6      -0.02272914      -0.07290140       0.02946239
H        5.81563593       2.05321441       5.55220816        7      -0.00272934       0.00531079      -0.05792291
H        7.55101015       2.25508100       5.52621000        8       0.03354203       0.02275920      -0.04346409
H        4.37898068      12.39913666      13.22044999        9       0.08594196       0.07525057      -0.00646725
H        6.14250067      12.61243799      13.20076864       10      -0.05525094       0.03200239      -0.00722642
H        5.11984698      13.75525675      14.09888522       11       0.00138295       0.01879305       0.03468022
H        7.90102760       0.13911035      11.94528448       12      -0.07517889      -0.02840662      -0.03566707
H       -0.86114664       8.87516811       8.09226369       13      -0.01443903      -0.01858823       0.00162210
H        4.10936332      14.57753540      11.96448736       14       0.00864131       0.02340389      -0.02462782
H        4.35859957      12.43032613      10.66670262       15      -0.05825852      -0.05104104       0.02821758
H        6.09075766      12.63521447      10.64347952       16       0.06908540      -0.04063242       0.04187199
H        6.14171537       5.17168147       1.24288159       17      -0.00877998      -0.02804483       0.01324803
H        5.76853897       9.51232653      14.94901639       18      -0.00759742       0.03986676      -0.00804450
H        5.00116469      13.38778722       5.97035607       19       0.01115500      -0.02752908       0.03406420
H        6.90527725       1.29831435      10.22666556       20      -0.01968264       0.06345125       0.04600818
H        6.10721303       5.21762916      14.94534680       21       0.00623157      -0.00218461       0.01070517
H        5.79816440       9.46926199       1.24820832       22      -0.00564810       0.04258820       0.00916442
H        5.76279519       2.07685285       2.99548907       23       0.08945532      -0.06718902       0.01650233
C        5.95885781       7.31727346       5.48845526       24       0.00092973       0.05726973       0.04040512
C        4.96984799      13.97526417       6.88776595       25      -0.02450169       0.15019774       0.01488961
C        6.68536001       2.79208154       8.09874197       26      -0.01645798       0.15816031       0.03383576
C        5.21887041      11.89473407       8.09705733       27       0.03979404      -0.21023098      -0.04099404
C        3.38833274       6.88353385       8.09995719       28       0.20717326      -0.14054380      -0.01096962
C        8.51690949       7.80734039       8.09605415       29       0.05390954      -0.19017413      -0.03497668
C        9.95657357       7.93710032       8.09453330       30       0.05061013       0.01772675       0.01111561
C        1.95280796       6.75346765       8.09953057       31      -0.37297729      -0.04158035       0.00977864
C       12.58372526       7.92243996       8.09559751       32       0.00906029       0.20622522      -0.01758154
C       -0.67569791       6.76215202       8.09672650       33      -0.04472656      -0.18459262       0.03827815
C        0.72879194       6.74380323       8.10045912       34       0.19876254       0.16210362      -0.01884851
C        5.94808841       7.37099314      10.70597760       35      -0.03430098      -0.04596318      -0.15088367
C       11.17814003       7.94117295       8.09472132       36       0.06576797      -0.15451467       0.00351243
C        6.03375385       6.15234941      15.50012202       37      -0.01245665      -0.02644774      -0.00399230
C        5.87291840       8.53549731       0.69474525       38       0.01428202      -0.06504220      -0.02574944
C        5.93886505       7.36566762      14.78437556       39       0.00310993       0.01038687       0.01161871
C        5.96990184       7.32214413       1.41199642       40      -0.03114587      -0.07812735      -0.22433367
C        5.83971669       8.57786489      15.50166560       41       0.01540017      -0.04934706       0.03551535
C        6.06544957       6.10709490       0.69212899       42       0.01962877       0.15128243       0.03660589
C        5.94389732       7.36645398      13.36811297       43      -0.02170033       0.04068041      -0.24226001
C        5.96368685       7.32057494       2.82413872       44       0.02632841      -0.02263105       0.31564370
C        6.76220139       1.48535045       5.54034377       45      -0.08439676       0.13706444       0.11470432
C        5.96405538       7.31863956       4.04361808       46      -0.01286021      -0.00644565      -0.19229242
C        6.83996958       0.65613125       4.25768384       47      -0.00230066       0.01409365       0.03253335
C        6.72178250       1.53209575       3.01065813       48      -0.03490388       0.18467428      -0.03969029
C        5.14547696      13.20052647      10.65206333       49       0.03095767      -0.12205830      -0.09763357
C        5.06325043      14.02516544      11.93528946       50       0.06325729       0.20109574       0.04890914
C        5.18320716      13.15357659      13.18662245       51      -0.03504208      -0.21638706      -0.05650298
C        5.94214128       7.37413597      12.14797409       52       0.02428531      -0.01837788       0.35008591
C        6.86845761       0.71012520       6.82948000       53       0.07573539      -0.27760881       0.15560757
C        5.03810208      13.97711661       9.36295398       54      -0.07554131       0.33686894       0.07544477
C        6.83721644       1.38535293       8.07681198       55      -0.04041406       0.23053953       0.06412908
C        5.06941552      13.30487270       8.11959327       56       0.04014292      -0.46786585      -0.07779212
C        6.93480923       0.71178569       9.31195335       57       0.03697773      -0.10643730      -0.29935038
N        5.35395507      10.73731562       8.08175712       58      -0.04429735       0.13285226      -0.02638353
N        6.55137894       3.94839524       8.11008840       59       0.02008333       0.03170139       0.03150552
O        6.08628705       6.18182831       6.05575311       60       0.00932876      -0.04528457       0.09420982
O        5.81712734       8.50548089      10.13550115       61       0.00908820       0.03666967      -0.09379657
O        5.82840683       8.45253669       6.05784473       62       0.00366639      -0.04024777       0.03761005
O        6.07776773       6.23473605      10.13807841       63       0.01704126       0.05480403      -0.04689248
O        4.08252964       5.81035944       8.09908370       64      -0.04424044       0.12598079       0.00500606
O        7.82559204       8.87499121       8.09739009       65      -0.12147173       0.08873910       0.00696612
O        3.82609902       8.08068399       8.09917979       66       0.06157889       0.09635881      -0.00536642
O        8.08492743       6.60497889       8.09086065       67      -0.07566138       0.02915022       0.02131191
68
Lattice="13.97746025 0.0 0.0 -2.0346285431679485 14.645423794054933 0.0 -0.035739268865974574 0.04142268447260268 16.194372767480207" Properties=species:S:1:pos:R:3:spacegroup_kinds:I:1:forces:R:3 spacegroup="P 1" unit_cell=conventional occupancy="_JSON {\"0\": {\"Zn\": 1}, \"1\": {\"Zn\": 1}, \"2\": {\"H\": 1}, \"3\": {\"H\": 1}, \"4\": {\"H\": 1}, \"5\": {\"H\": 1}, \"6\": {\"H\": 1}, \"7\": {\"H\": 1}, \"8\": {\"H\": 1}, \"9\": {\"H\": 1}, \"10\": {\"H\": 1}, \"11\": {\"H\": 1}, \"12\": {\"H\": 1}, \"13\": {\"H\": 1}, \"14\": {\"H\": 1}, \"15\": {\"H\": 1}, \"16\": {\"H\": 1}, \"17\": {\"H\": 1}, \"18\": {\"H\": 1}, \"19\": {\"H\": 1}, \"20\": {\"H\": 1}, \"21\": {\"H\": 1}, \"22\": {\"H\": 1}, \"23\": {\"H\": 1}, \"24\": {\"C\": 1}, \"25\": {\"C\": 1}, \"26\": {\"C\": 1}, \"27\": {\"C\": 1}, \"28\": {\"C\": 1}, \"29\": {\"C\": 1}, \"30\": {\"C\": 1}, \"31\": {\"C\": 1}, \"32\": {\"C\": 1}, \"33\": {\"C\": 1}, \"34\": {\"C\": 1}, \"35\": {\"C\": 1}, \"36\": {\"C\": 1}, \"37\": {\"C\": 1}, \"38\": {\"C\": 1}, \"39\": {\"C\": 1}, \"40\": {\"C\": 1}, \"41\": {\"C\": 1}, \"42\": {\"C\": 1}, \"43\": {\"C\": 1}, \"44\": {\"C\": 1}, \"45\": {\"C\": 1}, \"46\": {\"C\": 1}, \"47\": {\"C\": 1}, \"48\": {\"C\": 1}, \"49\": {\"C\": 1}, \"50\": {\"C\": 1}, \"51\": {\"C\": 1}, \"52\": {\"C\": 1}, \"53\": {\"C\": 1}, \"54\": {\"C\": 1}, \"55\": {\"C\": 1}, \"56\": {\"C\": 1}, \"57\": {\"C\": 1}, \"58\": {\"N\": 1}, \"59\": {\"N\": 1}, \"60\": {\"O\": 1}, \"61\": {\"O\": 1}, \"62\": {\"O\": 1}, \"63\": {\"O\": 1}, \"64\": {\"O\": 1}, \"65\": {\"O\": 1}, \"66\": {\"O\": 1}, \"67\": {\"O\": 1}}" energy=-457.1797180175781 free_energy=-457.1797180175781 stress="0.0005287411040626466 0.0001330329105257988 3.7064314284407374e-08 0.0001330329105257988 -0.0013086566468700767 -6.33372474112548e-05 3.7064314284407374e-08 -6.33372474112548e-05 0.000634744530543685" pbc="T T T"
Zn       6.13596645       5.94972678       8.10313781        0      -0.10906648       0.45658663      -0.02465972
Zn       5.77412122       8.73979560       8.08663938        1       0.09664139      -0.46465784       0.05777306
H       12.76803209       5.81195392       8.10569066        2      -0.02674134      -0.07347617      -0.01141748
H        7.52708820       2.28431949       2.97397267        3      -0.02162898      -0.02455414       0.01224538
H        6.78524085       0.92973454       2.09499882        4      -0.00448490       0.02435979      -0.01015428
H        7.79305444       0.10219736       4.22872145        5       0.04437533      -0.05055190       0.01340362
H        4.00364332      14.55038428       4.24785419        6      -0.03265276      -0.08226385       0.02696284
H        5.81484586       2.05259561       5.55072532        7      -0.01000229       0.02272370      -0.07108290
H        7.55291125       2.25679867       5.52390614        8      -0.01692398      -0.01017813      -0.03572079
H        4.37743413      12.40005772      13.22023417        9       0.08046885       0.06668162      -0.02018248
H        6.14193871      12.61235526      13.20033343       10      -0.06927905       0.03232752      -0.00909501
H        5.11882946      13.75317854      14.10026484       11       0.00416405       0.01750729       0.00761712
H        7.90167054       0.14023063      11.94368538       12      -0.05391244      -0.01990332      -0.03164931
H       -0.86140012       8.87500597       8.09238435       13       0.01251714       0.01660652      -0.00338372
H        4.11196252      14.57897254      11.96379166       14      -0.03167460       0.04293764      -0.03520342
H        4.35772163      12.42820258      10.66527188       15       0.01135124       0.00627068       0.03551652
H        6.09181109      12.63695305      10.64536949       16       0.12349087      -0.08198678       0.02973738
H        6.14020477       5.17011160       1.24224908       17      -0.00465793      -0.02067603       0.01283254
H        5.77116381       9.51201210      14.94762684       18      -0.01489083       0.06188788      -0.01285461
H        5.00347982      13.38860994       5.97207047       19       0.01170949      -0.04389949      -0.00367156
H        6.90615826       1.30000606      10.22393911       20      -0.02185202       0.02130388       0.01614057
H        6.10786152       5.21820624      14.94619006       21       0.01729503      -0.08547663      -0.05449682
H        5.80056540       9.46866778       1.24598621       22      -0.01284058       0.05933300       0.03809947
H        5.76438473       2.07453077       2.99526691       23       0.07555491      -0.04481523       0.01089162
C        5.95983504       7.31999723       5.48823927       24      -0.02912439      -0.03945405       0.09458879
C        4.97123674      13.97551444       6.88850494       25      -0.05515558       0.27713233      -0.08095898
C        6.68487061       2.79210747       8.10006162       26       0.01944761      -0.13739324       0.04835489
C        5.22017466      11.89437987       8.09720349       27      -0.01211930       0.17625245      -0.05405993
C        3.39098078       6.88448121       8.10171413       28       0.06637177      -0.12833357      -0.08061425
C        8.51855968       7.80794069       8.09420032       29      -0.11240879      -0.13575219      -0.02227650
C        9.95444575       7.93800628       8.09357929       30       0.23768917       0.02279982       0.00318361
C        1.95074785       6.75540136       8.09967938       31      -0.07650036      -0.03066914       0.03015897
C       12.58512837       7.92310663       8.09418360       32      -0.07212933       0.07519741      -0.00708607
C       -0.67480173       6.75987349       8.09770056       33      -0.10035899      -0.01379878       0.02639044
C        0.72842505       6.74240373       8.10088291       34       0.09261250       0.16297826      -0.01539969
C        5.94708774       7.37344870      10.70428920       35      -0.00024589      -0.14625049      -0.03462151
C       11.17698765       7.94097623       8.09268490       36       0.07474032      -0.14937988       0.00670078
C        6.03513812       6.15108419      15.49786470       37      -0.03250719       0.05997242       0.12687168
C        5.87207577       8.53432300       0.69470843       38       0.01234720      -0.01051614      -0.09120496
C        5.93904675       7.36508081      14.78496698       39       0.00658451       0.06695495      -0.08712615
C        5.96772930       7.32209184       1.40969535       40      -0.00048201      -0.16565192      -0.07409205
C        5.83901741       8.57880111      15.50129742       41       0.03278202      -0.14632401       0.03881687
C        6.06544700       6.10566201       0.69129722       42       0.00498059       0.18641198      -0.00027061
C        5.94524572       7.36881156      13.36598362       43      -0.02809018       0.02112365       0.26903564
C        5.96463372       7.32048500       2.82557765       44       0.00593102      -0.01687543      -0.16168654
C        6.76185336       1.48665570       5.53877590       45      -0.01460468       0.12672110       0.10720074
C        5.96241882       7.32121136       4.04122929       46       0.00824286      -0.00837320       0.25735217
C        6.84229657       0.65566041       4.25525633       47      -0.02635702       0.03930607       0.07125001
C        6.72413824       1.53266360       3.00855301       48      -0.04351328       0.10656968      -0.03765653
C        5.14761255      13.19940607      10.65143110       49      -0.10556890      -0.08341824      -0.12311282
C        5.06429153      14.02705723      11.93356465       50       0.06882223       0.11794546       0.08527562
C        5.18212929      13.15339871      13.18578075       51      -0.00611632      -0.17552532      -0.04693441
C        5.94209794       7.37530739      12.15046824       52       0.02098649      -0.01082996      -0.20952842
C        6.86657297       0.71207838       6.82875477       53       0.11805683      -0.35062325       0.20959029
C        5.03852749      13.97694322       9.36095876       54      -0.06622050       0.27277771       0.10375238
C        6.83718358       1.38489448       8.07905264       55      -0.07349861       0.28337443      -0.14959635
C        5.06996027      13.30555754       8.11690628       56       0.05904496      -0.53194600       0.04620988
C        6.93358761       0.71047532       9.30919652       57       0.05882679      -0.07479373      -0.11663418
N        5.35305355      10.74005498       8.08412817       58       0.00821465      -0.25337863      -0.02871013
N        6.55051933       3.94568072       8.11206324       59      -0.01752528       0.34718513       0.03050005
O        6.08675391       6.18116938       6.05634864       60       0.00260042       0.13079357       0.00543042
O        5.81715757       8.50507781      10.13312260       61      -0.00849982       0.11934748      -0.10254540
O        5.82647855       8.45497634       6.06034905       62       0.03018854      -0.12801239      -0.05503828
O        6.07874953       6.23671447      10.13602824       63       0.00252049       0.06982940      -0.00258541
O        4.08141161       5.80871271       8.09633621       64      -0.03872664       0.18546391       0.03489432
O        7.82380793       8.87507220       8.09544253       65      -0.05477706       0.07579738       0.00610531
O        3.82857604       8.08271123       8.09647083       66       0.03986397       0.00474164       0.02452909
O        8.08332675       6.60729142       8.09002669       67      -0.04328538      -0.01746428       0.01789879
68
Lattice="13.97746025 0.0 0.0 -2.0346285431679485 14.645423794054933 0.0 -0.035739268865974574 0.04142268447260268 16.194372767480207" Properties=species:S:1:pos:R:3:spacegroup_kinds:I:1:forces:R:3 spacegroup="P 1" unit_cell=conventional occupancy="_JSON {\"0\": {\"Zn\": 1}, \"1\": {\"Zn\": 1}, \"2\": {\"H\": 1}, \"3\": {\"H\": 1}, \"4\": {\"H\": 1}, \"5\": {\"H\": 1}, \"6\": {\"H\": 1}, \"7\": {\"H\": 1}, \"8\": {\"H\": 1}, \"9\": {\"H\": 1}, \"10\": {\"H\": 1}, \"11\": {\"H\": 1}, \"12\": {\"H\": 1}, \"13\": {\"H\": 1}, \"14\": {\"H\": 1}, \"15\": {\"H\": 1}, \"16\": {\"H\": 1}, \"17\": {\"H\": 1}, \"18\": {\"H\": 1}, \"19\": {\"H\": 1}, \"20\": {\"H\": 1}, \"21\": {\"H\": 1}, \"22\": {\"H\": 1}, \"23\": {\"H\": 1}, \"24\": {\"C\": 1}, \"25\": {\"C\": 1}, \"26\": {\"C\": 1}, \"27\": {\"C\": 1}, \"28\": {\"C\": 1}, \"29\": {\"C\": 1}, \"30\": {\"C\": 1}, \"31\": {\"C\": 1}, \"32\": {\"C\": 1}, \"33\": {\"C\": 1}, \"34\": {\"C\": 1}, \"35\": {\"C\": 1}, \"36\": {\"C\": 1}, \"37\": {\"C\": 1}, \"38\": {\"C\": 1}, \"39\": {\"C\": 1}, \"40\": {\"C\": 1}, \"41\": {\"C\": 1}, \"42\": {\"C\": 1}, \"43\": {\"C\": 1}, \"44\": {\"C\": 1}, \"45\": {\"C\": 1}, \"46\": {\"C\": 1}, \"47\": {\"C\": 1}, \"48\": {\"C\": 1}, \"49\": {\"C\": 1}, \"50\": {\"C\": 1}, \"51\": {\"C\": 1}, \"52\": {\"C\": 1}, \"53\": {\"C\": 1}, \"54\": {\"C\": 1}, \"55\": {\"C\": 1}, \"56\": {\"C\": 1}, \"57\": {\"C\": 1}, \"58\": {\"N\": 1}, \"59\": {\"N\": 1}, \"60\": {\"O\": 1}, \"61\": {\"O\": 1}, \"62\": {\"O\": 1}, \"63\": {\"O\": 1}, \"64\": {\"O\": 1}, \"65\": {\"O\": 1}, \"66\": {\"O\": 1}, \"67\": {\"O\": 1}}" energy=-457.18121337890625 free_energy=-457.18121337890625 stress="0.00048235966823995113 0.0001563380064908415 -6.063790351618081e-06 0.0001563380064908415 -0.0010598679073154926 -0.00010695646778913215 -6.063790351618081e-06 -0.00010695646778913215 0.0006723440601490438" pbc="T T T"
Zn       6.13670772       5.95192458       8.10056565        0      -0.11102967       0.44161901       0.00389520
Zn       5.77692586       8.73847231       8.08442467        1       0.06643668      -0.44807062       0.08454503
H       12.76930134       5.81371787       8.10669942        2      -0.05593774      -0.11225668      -0.01493721
H        7.52614974       2.28567714       2.97410910        3      -0.05526177      -0.05135403      -0.00635879
H        6.78481257       0.93018843       2.09305352        4      -0.00229660       0.00225330      -0.02912422
H        7.79087962       0.10116409       4.22954513        5       0.09071351      -0.04656999       0.01170907
H        4.00449201      14.55110788       4.24847869        6      -0.00927934      -0.05025118       0.03199733
H        5.81273624       2.05085645       5.55015602        7      -0.01594603       0.04243139      -0.07272471
H        7.55340667       2.25887485       5.52183793        8      -0.05579746      -0.02817334      -0.02190863
H        4.37918128      12.39857688      13.22200623        9       0.01673328       0.02189945      -0.01970959
H        6.14105117      12.61297962      13.20063257       10      -0.06108653       0.02588773       0.00189157
H        5.11773974      13.75300696      14.10165277       11       0.00096110       0.01177327       0.01292844
H        7.89930345       0.14048341      11.94255521       12      -0.01594237      -0.01044166      -0.02051670
H       -0.86204414       8.87345901       8.09185653       13       0.06956000       0.12772453      -0.00380001
H        4.11361155      14.57796719      11.96204957       14      -0.08866084       0.06735185      -0.02301472
H        4.35824871      12.42710879      10.66651483       15      -0.02405138      -0.02956034       0.02207448
H        6.09261094      12.63731987      10.64333682       16       0.10499315      -0.08692565       0.03740617
H        6.14123998       5.16800715       1.24162988       17      -0.00346959       0.02479735      -0.01118168
H        5.76964829       9.51265561      14.94795460       18      -0.01618671       0.05508743      -0.02155067
H        5.00148137      13.39085131       5.97167115       19       0.01066213      -0.04114577      -0.02290899
H        6.90595259       1.30073554      10.22369663       20      -0.01547291       0.00327305      -0.02907385
H        6.11023206       5.21630838      14.94676847       21       0.01001335      -0.03002246      -0.03164092
H        5.79945410       9.46667791       1.24808891       22      -0.01177754       0.07790157       0.02045630
H        5.76273153       2.07480460       2.99410796       23       0.08724563      -0.05783909       0.00651642
C        5.95814853       7.32275204       5.48924798       24       0.02967397      -0.12241030      -0.01558325
C        4.96994759      13.97787711       6.88749711       25      -0.03027631       0.18221290       0.00309238
C        6.68262759       2.79001950       8.10120779       26      -0.04034358       0.46729821       0.03609602
C        5.22242816      11.89640698       8.09903586       27       0.01575315      -0.18803278      -0.10837099
C        3.39387016       6.88241959       8.10212370       28      -0.03509828       0.10394698      -0.06294663
C        8.51815158       7.80921915       8.09154361       29      -0.05427733      -0.25309733       0.00543393
C        9.95739322       7.93972567       8.09216724       30       0.02728155      -0.00849208      -0.00829308
C        1.95312441       6.75735517       8.10200595       31      -0.08640176      -0.04263568       0.01682232
C       12.58602914       7.92516902       8.09360040       32      -0.08434067      -0.07673333      -0.01433310
C       -0.67521614       6.76076107       8.09685035       33       0.03706484       0.04007461       0.03067699
C        0.73092097       6.74251522       8.09975909       34      -0.01263091       0.17097367      -0.00556151
C        5.94977736       7.37465311      10.70521722       35      -0.03131978      -0.22193566      -0.11101773
C       11.17898201       7.93942181       8.09059556       36       0.11600813      -0.11983791       0.01438946
C        6.03563222       6.15089129      15.49895477       37      -0.00333762       0.07234024      -0.05778150
C        5.87256937       8.53484861       0.69335007       38      -0.01498237      -0.06615607      -0.09721753
C        5.94078332       7.36712434      14.78202443       39      -0.02657717      -0.09567273       0.05993583
C        5.96564096       7.32253585       1.40764263       40       0.04216678      -0.18452005      -0.09053274
C        5.83772754       8.57783376      15.49919852       41       0.05362137      -0.05102788       0.06328543
C        6.06780110       6.10467173       0.68940617       42      -0.03138075       0.19106950       0.12038811
C        5.94356189       7.36632827      13.36582207       43      -0.00355966       0.04989649       0.06961456
C        5.96328724       7.32218623       2.82270344       44       0.00451821      -0.03423336      -0.04877892
C        6.76100834       1.48826426       5.53772815       45       0.04088714       0.12819214       0.19495639
C        5.96244479       7.31929677       4.03923249       46      -0.01343198       0.03105003       0.26342052
C        6.84362962       0.65818519       4.25615693       47      -0.13397932      -0.03557476      -0.00480805
C        6.72268101       1.53225624       3.00573338       48       0.00229646       0.17037521       0.05338953
C        5.14639378      13.19739156      10.64968867       49      -0.02012709      -0.02180317      -0.00051603
C        5.06419594      14.02680560      11.93457670       50       0.06523686       0.02113768       0.03491758
C        5.18032070      13.15188636      13.18811880       51       0.06848863      -0.08668950      -0.10148256
C        5.94441292       7.37600908      12.14905509       52       0.02004854      -0.00927288      -0.02755436
C        6.86654710       0.71297503       6.83137287       53       0.10403761      -0.29000413       0.01504020
C        5.04038048      13.97488379       9.36208613       54      -0.10394049       0.44263792      -0.06821535
C        6.83697030       1.38749892       8.07887871       55      -0.05127897       0.14788154      -0.12472124
C        5.07124218      13.30366442       8.11559508       56       0.04158279      -0.33847079       0.11308944
C        6.93593111       0.71255178       9.30633423       57       0.05893512      -0.24649239       0.06211673
N        5.35374448      10.73965509       8.08166633       58      -0.01364588      -0.01144099      -0.01311179
N        6.54830371       3.94765781       8.11094007       59       0.03059403      -0.10395357       0.03156058
O        6.08836726       6.18255098       6.05568440       60      -0.02552813       0.17156056       0.00707573
O        5.81826008       8.50294069      10.13091050       61       0.00259545       0.21819416      -0.10728874
O        5.82798502       8.45708213       6.06092739       62       0.01315726      -0.11937618      -0.07493147
O        6.07766187       6.23760230      10.13627205       63       0.01961352       0.03729340      -0.00492406
O        4.08072256       5.80894422       8.09678933       64       0.07500422       0.05366859       0.02569804
O        7.82481740       8.87760179       8.09266985       65      -0.03427067       0.00835446      -0.00178187
O        3.83040387       8.08347334       8.09724805       66       0.03955548      -0.08485830       0.01527358
O        8.08295492       6.60476602       8.09051342       67       0.02748546       0.19517419       0.00851031
68