90
Lattice="9.62943487 0.0 0.0 -2.8464734204834223 9.678890454506625 0.0 -0.4131703200832524 -3.8606073835081465 9.689106680830305" Properties=species:S:1:pos:R:3:spacegroup_kinds:I:1:forces:R:3 spacegroup="P 1" unit_cell=conventional occupancy="_JSON {\"0\": {\"Cd\": 1}, \"1\": {\"Cd\": 1}, \"2\": {\"H\": 1}, \"3\": {\"H\": 1}, \"4\": {\"H\": 1}, \"5\": {\"H\": 1}, \"6\": {\"H\": 1}, \"7\": {\"H\": 1}, \"8\": {\"H\": 1}, \"9\": {\"H\": 1}, \"10\": {\"H\": 1}, \"11\": {\"H\": 1}, \"12\": {\"H\": 1}, \"13\": {\"H\": 1}, \"14\": {\"H\": 1}, \"15\": {\"H\": 1}, \"16\": {\"H\": 1}, \"17\": {\"H\": 1}, \"18\": {\"H\": 1}, \"19\": {\"H\": 1}, \"20\": {\"H\": 1}, \"21\": {\"H\": 1}, \"22\": {\"H\": 1}, \"23\": {\"H\": 1}, \"24\": {\"H\": 1}, \"25\": {\"H\": 1}, \"26\": {\"H\": 1}, \"27\": {\"H\": 1}, \"28\": {\"H\": 1}, \"29\": {\"H\": 1}, \"30\": {\"H\": 1}, \"31\": {\"H\": 1}, \"32\": {\"H\": 1}, \"33\": {\"H\": 1}, \"34\": {\"H\": 1}, \"35\": {\"H\": 1}, \"36\": {\"H\": 1}, \"37\": {\"H\": 1}, \"38\": {\"H\": 1}, \"39\": {\"H\": 1}, \"40\": {\"H\": 1}, \"41\": {\"H\": 1}, \"42\": {\"C\": 1}, \"43\": {\"C\": 1}, \"44\": {\"C\": 1}, \"45\": {\"C\": 1}, \"46\": {\"C\": 1}, \"47\": {\"C\": 1}, \"48\": {\"C\": 1}, \"49\": {\"C\": 1}, \"50\": {\"C\": 1}, \"51\": {\"C\": 1}, \"52\": {\"C\": 1}, \"53\": {\"C\": 1}, \"54\": {\"C\": 1}, \"55\": {\"C\": 1}, \"56\": {\"C\": 1}, \"57\": {\"C\": 1}, \"58\": {\"C\": 1}, \"59\": {\"C\": 1}, \"60\": {\"C\": 1}, \"61\": {\"C\": 1}, \"62\": {\"C\": 1}, \"63\": {\"C\": 1}, \"64\": {\"C\": 1}, \"65\": {\"C\": 1}, \"66\": {\"C\": 1}, \"67\": {\"C\": 1}, \"68\": {\"C\": 1}, \"69\": {\"C\": 1}, \"70\": {\"C\": 1}, \"71\": {\"C\": 1}, \"72\": {\"C\": 1}, \"73\": {\"C\": 1}, \"74\": {\"C\": 1}, \"75\": {\"C\": 1}, \"76\": {\"C\": 1}, \"77\": {\"C\": 1}, \"78\": {\"N\": 1}, \"79\": {\"N\": 1}, \"80\": {\"N\": 1}, \"81\": {\"N\": 1}, \"82\": {\"O\": 1}, \"83\": {\"O\": 1}, \"84\": {\"O\": 1}, \"85\": {\"O\": 1}, \"86\": {\"O\": 1}, \"87\": {\"O\": 1}, \"88\": {\"O\": 1}, \"89\": {\"O\": 1}}" energy=-570.4230346679688 free_energy=-570.4230346679688 stress="-0.005925463978201151 -0.0009480364387854934 0.0020591719076037407 -0.0009480364387854934 -0.003002927405759692 -0.002254725433886051 0.0020591719076037407 -0.002254725433886051 -0.002501186216250062" pbc="T T T"
Cd       1.11130652       8.06308644       0.84056430        0       0.14720578       0.17665195      -0.24114184
Cd       5.22543712      -2.25487432       8.84826254        1       0.32584357      -0.37475669       0.13330549
H        0.57128740       4.57812749       7.27727546        2       0.32844350      -0.94658285       0.26254469
H        5.81351722       1.25516413       2.41231718        3      -0.30622640       0.54130721      -0.08825471
H        1.21518743       3.42272270       5.18717382        4       0.16377141      -0.67907393       1.22022629
H        5.13677405       2.44434799       4.50616093        5       0.16982153      -0.10327660      -0.35838923
H        2.64230826       0.09430725       7.63610194        6      -0.21500234       0.28011617      -0.04091693
H        3.71392901       5.69325924       2.01492205        7       0.14832762      -0.27485174      -0.13519587
H        1.86797055       1.43354947       9.65244873        8      -0.02381838      -0.25380120       0.37678942
H        4.52347664       4.40826108       0.03257940        9       0.15994751      -0.32334912       0.98499960
H        0.98944816       1.83161351       3.69978213       10       0.97398305      -0.68882716      -0.05088364
H        5.34637636       3.99278456       5.97228284       11      -0.11335048       0.10735393       0.03116568
H        1.86020088       0.59301554       1.67037951       12       0.23894258       0.10534996       0.49486861
H        4.52249108       5.22851109       7.99756014       13       0.08779709       0.02296910       0.24654616
H        4.82020624      -1.20614580       3.91207493       14       0.21844263      -0.19433396      -0.00622540
H        1.52188311       7.06905497       5.81846959       15       0.26998889      -0.48194516      -0.27712190
H        4.13898762      -0.05726236       6.03290214       16      -0.49078223       0.07740124      -1.20285940
H        2.21182025       5.89886902       3.70876256       17       0.10678752      -0.00086861      -0.15010536
H       -2.17655606       5.67478333       8.58747439       18      -0.09938933      -0.67516732       0.36727387
H        8.53063070       0.13483584       1.05226346       19      -0.18733984       0.19464619      -0.05531144
H        0.38801106      -2.25087309       8.77313258       20       0.43608052      -0.57306921      -0.09492645
H        5.95435059       8.12040929       0.90660089       21       0.24197161      -0.70863444      -0.50349534
H        6.27825111       6.81217923       6.64174956       22      -0.07537390       0.03042795      -0.01860145
H        0.08543435      -1.01537963       3.03368291       23       0.01056225       0.19125222       0.05838591
H        0.94826824      -1.90869961       6.35957529       24       0.01870223       0.09385896       0.18028533
H        5.40648039       7.72154250       3.31977583       25       0.10074855       0.60534066      -0.14253351
H       -2.06787843       4.70901533       6.22380403       26       0.15881290       0.38989455      -0.14572269
H        8.39877827       1.10627846       3.51785575       27       0.38391238       1.07894564      -0.38779664
H       -0.59401871       5.65110140       5.99316839       28       0.14663318       0.01299272       0.10934337
H        6.91672714       0.14106518       3.70466304       29       0.96215844       0.17270362      -0.08600913
H        6.63130187       6.00639322       4.22024956       30      -1.16386867       0.03477786      -0.28180224
H       -0.25780252      -0.18483882       5.48758988       31      -0.07082269      -0.02926615       0.09708823
H       -1.47911717       6.81454026       4.03373598       32      -0.09644061      -0.48234051       0.08464684
H        7.85093743      -0.96138580       5.63017703       33      -1.08521962      -1.88426244       0.67331350
H       -0.42093680       4.49228448       3.67962798       34       1.12471533      -0.21053544       0.39009005
H        6.77315800       1.28214888       6.00014120       35      -1.02057815       0.37521020      -0.18224750
H        7.58340447       3.77418301       3.78261253       36       0.37128481       0.40072942      -0.08960208
H       -1.25222776       1.98946620       5.95338758       37       0.46430659       0.88726461      -0.26612821
H        6.99962516       5.31271450       1.75041222       38      -0.81230330       0.29399401       0.08973344
H       -0.62853563       0.46555172       7.90490177       39      -0.04300430       0.12721036       0.09859553
H       -1.43924207       4.14213956       1.37857510       40       0.16626640      -0.16012120       0.12718731
H        7.77926911       1.68466088       8.30052477       41      -0.05196521       0.31068417       0.31011510
C        1.01563301       3.54579839       7.34319652       42      -0.73519933       2.05939984      -0.93822038
C        5.33832806       2.25969645       2.37559568       43       1.11706114      -1.94409156      -1.60454738
C        1.37833799       2.89976199       6.18855309       44      -0.18703844       0.85931402      -2.06954265
C        5.00188687       2.89253599       3.51239061       45      -1.42765641       2.25580215       1.87071204
C        2.01994311       1.67506681       6.25592703       46       0.17224973      -0.86715806      -0.02800056
C        4.32573310       4.17601265       3.45450638       47       1.10254145      -1.54551005      -1.94778013
C        2.18154839       1.08467061       7.51841321       48      -0.13998672       0.36385381       0.98735154
C        4.15651933       4.69396830       2.13294669       49      -0.28010440       0.69161379       2.26586604
C        1.75369522       1.81089514       8.65021386       50       0.44305658       0.04487538      -1.12716269
C        4.62517678       3.98180144       1.07448892       51      -0.23284271       0.02287757      -2.83492446
C        2.49275484       0.97030783       5.05744530       52      -0.30019617       0.20873581      -1.44677627
C        3.89953043       4.86746723       4.63354658       53      -1.00901914       0.72627789       1.11913490
C        1.89601601       1.15634854       3.76998034       54      -1.45572722       1.44907784       1.31181371
C        4.48759702       4.66847880       5.88941439       55       0.80147970      -0.36423448       0.35633674
C        2.35349840       0.51538785       2.65885845       56       0.12354787      -1.09780550      -1.11600018
C        4.05160587       5.34123434       7.03125675       57      -0.75704390       0.36643031      -1.10956323
C        3.98111912      -0.52230577       3.89444666       58       0.39773479      -0.61282200       0.11120263
C        2.35879431       6.34528005       5.76469717       59      -0.08636436       1.14137411       1.21260500
C        3.58064911       0.10792425       5.05791189       60       0.76521230      -0.06099315       1.92776453
C        2.78951848       5.74817311       4.61950597       61       0.00422460      -0.61440444      -1.21674025
C        2.47552648      -2.78491260       8.45655681       62      -1.72312546      -1.44901788       0.92254663
C        3.92555259       8.61628540       1.23924866       63      -1.21680582      -0.60397542      -0.30939159
C        0.95758269      -3.04085405       8.20273118       64       0.47181726       1.74967051       0.48039716
C        5.36939037       8.84202445       1.45433490       65       1.12318838       0.52111340       1.55277109
C       -2.25623595       6.80706025       6.75388718       66      -0.11161694      -0.12709582      -0.85690171
C        8.61721580      -0.95852927       2.95691317       67      -0.13116476      -1.00033605      -0.64697397
C       -1.68315341       5.70192630       5.87782341       68      -0.00942385      -0.97875148      -0.57408249
C        8.04921242       0.14465715       3.81574304       69      -1.89447939      -0.86429030       1.36798203
C       -1.95195558       5.85254977       4.35752474       70       1.07718313       0.95437312       1.10046411
C        8.28291475      -0.06216234       5.34408216       71       1.67203259       1.99433446      -1.36378217
C       -1.45515312       4.69281450       3.52136923       72      -1.63684082      -0.26810849      -0.77318120
C        7.80883034       1.11855573       6.20992781       73       0.36601275      -1.57894611       0.34156370
C       -1.63385610       5.01352027       2.02678307       74       0.49153447      -0.46360251      -0.16702422
C        7.96846407       0.79336681       7.70194685       75       0.75044882       0.03456395      -0.25512880
C       -0.67813427       6.09482163       1.57178411       76       0.72251070       0.50477856      -0.28004682
C        7.02157261      -0.29027028       8.16002530       77       1.30368638      -0.37911808       0.29343307
N        1.23251844       3.05114931       8.53523737       78      -0.06734198      -0.81929755       1.64915597
N        5.15887126       2.75528333       1.12265119       79       0.09579313       0.25020581       1.05504251
N        3.38541327      -0.37780638       2.71679701       80      -0.62140107       0.87017179      -0.26176956
N        2.99690872       6.19097953       6.93948607       81       0.37067443      -0.35121423       0.77141261
O        0.56044944       5.98872271       1.89792922       82      -0.27964401      -0.09271614       0.07923822
O        5.83528849      -0.16855866       7.77808266       83      -1.55718780      -0.26903963      -0.10782450
O        3.07909261      -1.93879553       7.78752012       84       0.69986677       1.30420184      -1.11219239
O        3.26365878       7.76535374       1.91941936       85       0.47456834      -0.10495471       0.39884803
O        3.06525437      -3.45288629       9.37567651       86       0.00837272      -0.24636611       0.12492460
O        3.32433627       9.24024914       0.30938112       87      -0.13728711       0.80164921      -0.62026954
O       -1.09193628       7.08027358       0.86285176       88      -0.26958978      -0.28291506       0.17103843
O        7.46609294      -1.26969132       8.86949019       89      -0.35768342       0.34605253      -0.23501071
90
Lattice="9.62943487 0.0 0.0 -2.8464734204834223 9.678890454506625 0.0 -0.4131703200832524 -3.8606073835081465 9.689106680830305" Properties=species:S:1:pos:R:3:spacegroup_kinds:I:1:forces:R:3 spacegroup="P 1" unit_cell=conventional occupancy="_JSON {\"0\": {\"Cd\": 1}, \"1\": {\"Cd\": 1}, \"2\": {\"H\": 1}, \"3\": {\"H\": 1}, \"4\": {\"H\": 1}, \"5\": {\"H\": 1}, \"6\": {\"H\": 1}, \"7\": {\"H\": 1}, \"8\": {\"H\": 1}, \"9\": {\"H\": 1}, \"10\": {\"H\": 1}, \"11\": {\"H\": 1}, \"12\": {\"H\": 1}, \"13\": {\"H\": 1}, \"14\": {\"H\": 1}, \"15\": {\"H\": 1}, \"16\": {\"H\": 1}, \"17\": {\"H\": 1}, \"18\": {\"H\": 1}, \"19\": {\"H\": 1}, \"20\": {\"H\": 1}, \"21\": {\"H\": 1}, \"22\": {\"H\": 1}, \"23\": {\"H\": 1}, \"24\": {\"H\": 1}, \"25\": {\"H\": 1}, \"26\": {\"H\": 1}, \"27\": {\"H\": 1}, \"28\": {\"H\": 1}, \"29\": {\"H\": 1}, \"30\": {\"H\": 1}, \"31\": {\"H\": 1}, \"32\": {\"H\": 1}, \"33\": {\"H\": 1}, \"34\": {\"H\": 1}, \"35\": {\"H\": 1}, \"36\": {\"H\": 1}, \"37\": {\"H\": 1}, \"38\": {\"H\": 1}, \"39\": {\"H\": 1}, \"40\": {\"H\": 1}, \"41\": {\"H\": 1}, \"42\": {\"C\": 1}, \"43\": {\"C\": 1}, \"44\": {\"C\": 1}, \"45\": {\"C\": 1}, \"46\": {\"C\": 1}, \"47\": {\"C\": 1}, \"48\": {\"C\": 1}, \"49\": {\"C\": 1}, \"50\": {\"C\": 1}, \"51\": {\"C\": 1}, \"52\": {\"C\": 1}, \"53\": {\"C\": 1}, \"54\": {\"C\": 1}, \"55\": {\"C\": 1}, \"56\": {\"C\": 1}, \"57\": {\"C\": 1}, \"58\": {\"C\": 1}, \"59\": {\"C\": 1}, \"60\": {\"C\": 1}, \"61\": {\"C\": 1}, \"62\": {\"C\": 1}, \"63\": {\"C\": 1}, \"64\": {\"C\": 1}, \"65\": {\"C\": 1}, \"66\": {\"C\": 1}, \"67\": {\"C\": 1}, \"68\": {\"C\": 1}, \"69\": {\"C\": 1}, \"70\": {\"C\": 1}, \"71\": {\"C\": 1}, \"72\": {\"C\": 1}, \"73\": {\"C\": 1}, \"74\": {\"C\": 1}, \"75\": {\"C\": 1}, \"76\": {\"C\": 1}, \"77\": {\"C\": 1}, \"78\": {\"N\": 1}, \"79\": {\"N\": 1}, \"80\": {\"N\": 1}, \"81\": {\"N\": 1}, \"82\": {\"O\": 1}, \"83\": {\"O\": 1}, \"84\": {\"O\": 1}, \"85\": {\"O\": 1}, \"86\": {\"O\": 1}, \"87\": {\"O\": 1}, \"88\": {\"O\": 1}, \"89\": {\"O\": 1}}" energy=-568.9758911132812 free_energy=-568.9758911132812 stress="-0.0010390859097242355 -0.0033644004724919796 0.0027434921357780695 -0.0033644004724919796 -0.0034679516684263945 -0.002149157924577594 0.0027434921357780695 -0.002149157924577594 -0.010127512738108635" pbc="T T T"
Cd       1.09589360       8.04100026       0.84685757        0       0.38184458       0.24284726      -0.30960059
Cd       5.20546760      -2.23409147       8.85577548        1       0.65081888      -0.57767928      -0.08104137
H        0.59981512       4.56801119       7.24832316        2      -0.02367934      -0.51519996       0.37214947
H        5.78893893       1.25147936       2.39815097        3      -0.45105937       0.92612743      -0.11221992
H        1.19581236       3.40017960       5.20188093        4       0.16041100      -0.62611055       0.94037747
H        5.11258989       2.43763240       4.49788159        5       0.24931169      -0.16078380      -0.51922262
H        2.62805037       0.08689880       7.63931971        6      -0.23745255       0.31739846      -0.16148990
H        3.70221376       5.71185436       1.98556343        7       0.14693777      -0.21988320       0.14138681
H        1.87143072       1.45615707       9.66826674        8       0.03459905      -0.50194645       1.00511444
H        4.54419487       4.42599184       0.03207873        9      -0.03658035      -0.28827557       0.59319049
H        0.96486488       1.82245148       3.70938769       10       1.42772174      -0.86837071      -0.03757850
H        5.36422141       4.01002644       5.98632807       11      -0.45592237       0.31698099      -0.10592265
H        1.83870895       0.60341226       1.69909114       12       0.01937290       0.03177828      -0.25828654
H        4.50137595       5.21504461       7.97666771       13       0.83226877      -0.15284774       1.72452545
H        4.82530615      -1.20702455       3.91486452       14      -0.19662772       0.05423899      -0.06639402
H        1.49965324       7.07093928       5.83785826       15       0.46805882      -0.79345357      -0.43491268
H        4.16538445      -0.03737945       6.01881174       16      -0.34011850      -0.18144320      -1.04806399
H        2.18995546       5.89187222       3.69966350       17       0.41431913       0.02253508       0.27499169
H       -2.20065664       5.68549260       8.60038564       18      -0.01983865      -0.32424173       0.25082338
H        8.51038194       0.13772645       1.06955545       19      -0.09740721       0.00244919      -0.16776943
H        0.41679685      -2.25344083       8.75991946       20      -0.43919361       0.55812961       0.54046118
H        5.97353377       8.10838678       0.89406086       21       0.47022432      -0.78809071      -0.55446583
H        6.27344209       6.79689165       6.65342074       22       0.71656901       0.07846590      -0.14178726
H        0.08437388      -1.04256601       3.06322675       23       0.01346328       0.41876510      -0.01897728
H        0.93948436      -1.89206693       6.37428903       24       0.10728254      -0.06868928      -0.00568998
H        5.41991981       7.69289516       3.32990555       25       0.21936274       1.44414687      -0.43675038
H       -2.05211991       4.68814672       6.25284053       26       0.24551393       0.87552595      -0.48282632
H        8.42444381       1.08738938       3.53447705       27       0.30119979       1.44246531      -0.36833122
H       -0.58402806       5.66309381       5.97662523       28      -0.29662758      -0.07710932       0.01720171
H        6.88888841       0.13309027       3.70048214       29       1.43895555       0.31301084       0.06567121
H        6.65252617       5.99062355       4.20618689       30      -1.65080667      -0.00275393      -0.43846029
H       -0.23410585      -0.15979817       5.48970929       31      -0.55593228      -0.11159055      -0.00703703
H       -1.49355561       6.80456398       4.00952835       32      -0.00887652      -0.46000725       0.15229502
H        7.86100290      -0.95519637       5.65890960       33      -1.24408460      -2.58131361       0.77585018
H       -0.39744105       4.50249116       3.67451783       34       1.04665780      -0.20207492       0.33009601
H        6.79362501       1.28538354       5.97342110       35      -2.46816254       0.50481284      -0.43422860
H        7.59023541       3.79559614       3.78812276       36       0.51557422       0.26826161      -0.10241358
H       -1.27773962       1.96141134       5.92436449       37       0.75550747       1.27002740      -0.27802432
H        6.99397287       5.29760498       1.72844354       38      -0.72568464       0.21912378       0.30627939
H       -0.60716633       0.43814831       7.89612954       39      -1.26674438       0.49887377      -0.26356861
H       -1.42040219       4.17108610       1.35440951       40       0.23000211      -0.30605683       0.19140661
H        7.80184166       1.65744424       8.33032806       41      -0.12154408       0.46760243       0.15785079
C        0.99441601       3.53683448       7.34307122       42      -0.47112578       1.62559199      -1.89796674
C        5.32250799       2.27879544       2.35139612       43       1.47594488      -3.21301174      -0.76269245
C        1.35757066       2.87080431       6.18813781       44      -0.88339168       2.45593119      -1.84804320
C        4.99657868       2.88769485       3.49913164       45      -1.46082735       2.69119930       2.22727966
C        2.00543723       1.69718483       6.27012891       46       1.09276760      -2.86778784      -0.54448539
C        4.34192303       4.19402764       3.47943953       47       1.31251407      -2.36616802      -4.16190243
C        2.15541058       1.07419793       7.52366762       48       0.14265923       0.40445977       1.52413356
C        4.14319454       4.72107936       2.15627089       49       0.63217938      -0.80535227       0.29377741
C        1.75991399       1.79358258       8.67274900       50      -0.19873862       0.99395221      -2.63615990
C        4.60606458       3.97312054       1.04840132       51      -0.54318511       0.91101170      -0.49627063
C        2.49788131       0.98367722       5.06065822       52       0.44151419      -0.35449079      -1.28652406
C        3.92247835       4.85275860       4.61120709       53      -2.52252626       2.88130522       3.43324423
C        1.91191852       1.16662523       3.77741739       54      -1.89717722       1.22174132       0.89814883
C        4.48664467       4.68854127       5.88909418       55       1.82134914      -1.58781779      -0.11187965
C        2.35058088       0.50327872       2.64774322       56       0.51168239      -0.52476919       0.27727866
C        4.07109257       5.31458173       7.03852365       57      -2.87665653       2.01312113      -2.68299150
C        3.96264661      -0.52611665       3.90363272       58       1.82248628      -1.54122388      -1.11530566
C        2.33556128       6.32647689       5.75701816       59      -0.09698272       1.93004537       1.98887825
C        3.60852102       0.08311014       5.04753251       60      -1.07391095       1.79779291       3.10781813
C        2.78990495       5.77465922       4.62201748       61       0.56510609      -2.03564191      -2.84811401
C        2.47815192      -2.78813808       8.45397144       62      -1.91120267      -1.96931577       1.77535796
C        3.92083874       8.58847983       1.22091517       63      -0.11869484      -0.36842233       0.29865527
C        0.93711216      -3.01968220       8.21402983       64       1.82912242      -0.00758439      -0.60679311
C        5.39612187       8.81831031       1.44992576       65       0.04828006       0.92844236       1.57678139
C       -2.22686889       6.79630722       6.73463778       66      -1.78710771       0.42736539      -0.05910478
C        8.62077276      -0.94351944       2.95105836       67      -0.39194840      -2.22779298       0.12891117
C       -1.69184835       5.69740951       5.86086078       68       1.01136601      -1.55402875      -0.28693223
C        8.03765327       0.15098389       3.83942674       69      -2.02141523      -1.70876276       0.35854024
C       -1.94242835       5.82942711       4.33133805       70       1.07983339       1.83224678       1.92896438
C        8.28809413      -0.08445031       5.33685038       71       1.95892763       3.20704365      -0.68193465
C       -1.43319450       4.70419641       3.51837440       72      -1.74591947      -1.15469432      -1.10184062
C        7.78338573       1.11555766       6.21555145       73       1.89244127      -2.09142637      -0.23140985
C       -1.63768720       5.01064333       2.03211294       74       0.54252106       0.05021521      -0.51020116
C        7.94771718       0.79631688       7.67756866       75       2.47090840      -0.13199219       0.53262240
C       -0.70183944       6.12279608       1.58438985       76       2.40589952      -1.39566851       0.47498387
C        7.01097102      -0.26327621       8.13326534       77       3.56960106      -1.72283733       1.80449867
N        1.21649486       3.04831528       8.51097897       78       0.37446630      -1.45549226       3.18844533
N        5.14487708       2.74210649       1.10926081       79      -0.27455580       1.29082787       0.37938619
N        3.40691559      -0.35332160       2.70465325       80      -1.16999841       0.64948970      -0.30446342
N        2.99927791       6.19907653       6.91791153       81       0.94912606      -1.07082880       1.68386006
O        0.57635556       5.96521329       1.87878311       82      -1.51933825       0.35616609      -0.12330736
O        5.85609310      -0.14798685       7.76582792       83      -3.74498940      -0.26830778      -0.66833526
O        3.07844168      -1.96075812       7.77025652       84       0.93192554       1.45333552      -1.24706125
O        3.24341841       7.75786259       1.90083895       85       0.41813439      -0.45611110       0.54660910
O        3.06601856      -3.44486312       9.40428138       86      -0.32031831       0.15981460      -0.54497474
O        3.34457864       9.24158812       0.31743054       87      -0.51044345       1.15494108      -1.31105709
O       -1.09443242       7.08127006       0.88622137       88      -0.85839790       0.96769023      -0.50323153
O        7.49232446      -1.24361890       8.87544454       89      -1.11153769       1.01015496      -0.85980207
90
Lattice="9.62943487 0.0 0.0 -2.8464734204834223 9.678890454506625 0.0 -0.4131703200832524 -3.8606073835081465 9.689106680830305" Properties=species:S:1:pos:R:3:spacegroup_kinds:I:1:forces:R:3 spacegroup="P 1" unit_cell=conventional occupancy="_JSON {\"0\": {\"Cd\": 1}, \"1\": {\"Cd\": 1}, \"2\": {\"H\": 1}, \"3\": {\"H\": 1}, \"4\": {\"H\": 1}, \"5\": {\"H\": 1}, \"6\": {\"H\": 1}, \"7\": {\"H\": 1}, \"8\": {\"H\": 1}, \"9\": {\"H\": 1}, \"10\": {\"H\": 1}, \"11\": {\"H\": 1}, \"12\": {\"H\": 1}, \"13\": {\"H\": 1}, \"14\": {\"H\": 1}, \"15\": {\"H\": 1}, \"16\": {\"H\": 1}, \"17\": {\"H\": 1}, \"18\": {\"H\": 1}, \"19\": {\"H\": 1}, \"20\": {\"H\": 1}, \"21\": {\"H\": 1}, \"22\": {\"H\": 1}, \"23\": {\"H\": 1}, \"24\": {\"H\": 1}, \"25\": {\"H\": 1}, \"26\": {\"H\": 1}, \"27\": {\"H\": 1}, \"28\": {\"H\": 1}, \"29\": {\"H\": 1}, \"30\": {\"H\": 1}, \"31\": {\"H\": 1}, \"32\": {\"H\": 1}, \"33\": {\"H\": 1}, \"34\": {\"H\": 1}, \"35\": {\"H\": 1}, \"36\": {\"H\": 1}, \"37\": {\"H\": 1}, \"38\": {\"H\": 1}, \"39\": {\"H\": 1}, \"40\": {\"H\": 1}, \"41\": {\"H\": 1}, \"42\": {\"C\": 1}, \"43\": {\"C\": 1}, \"44\": {\"C\": 1}, \"45\": {\"C\": 1}, \"46\": {\"C\": 1}, \"47\": {\"C\": 1}, \"48\": {\"C\": 1}, \"49\": {\"C\": 1}, \"50\": {\"C\": 1}, \"51\": {\"C\": 1}, \"52\": {\"C\": 1}, \"53\": {\"C\": 1}, \"54\": {\"C\": 1}, \"55\": {\"C\": 1}, \"56\": {\"C\": 1}, \"57\": {\"C\": 1}, \"58\": {\"C\": 1}, \"59\": {\"C\": 1}, \"60\": {\"C\": 1}, \"61\": {\"C\": 1}, \"62\": {\"C\": 1}, \"63\": {\"C\": 1}, \"64\": {\"C\": 1}, \"65\": {\"C\": 1}, \"66\": {\"C\": 1}, \"67\": {\"C\": 1}, \"68\": {\"C\": 1}, \"69\": {\"C\": 1}, \"70\": {\"C\": 1}, \"71\": {\"C\": 1}, \"72\": {\"C\": 1}, \"73\": {\"C\": 1}, \"74\": {\"C\": 1}, \"75\": {\"C\": 1}, \"76\": {\"C\": 1}, \"77\": {\"C\": 1}, \"78\": {\"N\": 1}, \"79\": {\"N\": 1}, \"80\": {\"N\": 1}, \"81\": {\"N\": 1}, \"82\": {\"O\": 1}, \"83\": {\"O\": 1}, \"84\": {\"O\": 1}, \"85\": {\"O\": 1}, \"86\": {\"O\": 1}, \"87\": {\"O\": 1}, \"88\": {\"O\": 1}, \"89\": {\"O\": 1}}" energy=-568.175537109375 free_energy=-568.175537109375 stress="-0.0030345681589096785 -0.006763976998627186 0.0029890856239944696 -0.006763976998627186 -0.005811597686260939 0.0008050001924857497 0.0029890856239944696 0.0008050001924857497 -0.008540830574929714" pbc="T T T"
Cd       1.07814990       8.02878630       0.86343351        0       0.51799017       0.40444636      -0.38719231
Cd       5.17669155      -2.22144595       8.87139436        1       0.71371520      -0.64465773      -0.13534224
H        0.60115894       4.59609755       7.25600812        2       0.25872824      -1.24673510       0.43082225
H        5.77096065       1.22263682       2.39099466        3      -0.47677290       1.28460240      -0.01260435
H        1.21633643       3.42226445       5.21034140        4       0.15230221      -0.57345366       0.80743736
H        5.12916614       2.44027731       4.51798063        5       0.15281576      -0.08841520      -0.50383854
H        2.60509329       0.09676961       7.63920424        6      -0.07475000       0.07312827      -0.26244783
H        3.67376215       5.69916101       1.97559852        7       0.29394025      -0.54448336       0.13125928
H        1.87183132       1.47796147       9.64004456        8       0.21784227      -0.98747230       1.84631228
H        4.52221462       4.44784776       0.01327856        9       0.07128137      -0.94074583       1.62039030
H        0.97336902       1.84970651       3.69308688       10       1.38387942      -0.94214892      -0.05806079
H        5.38575050       4.03168677       6.00762048       11      -0.61956817       0.13951288      -0.19585946
H        1.83900906       0.57527685       1.69447975       12       0.39829546       0.02088303       0.37741223
H        4.50166618       5.18739380       7.99496090       13       0.62666643       0.00441594       1.30212009
H        4.83252648      -1.19841246       3.92683930       14       0.29063538      -0.44596505      -0.12396293
H        1.47082556       7.09541024       5.81994414       15       0.97499526      -1.47988164      -0.31123531
H        4.18287765      -0.01190740       5.99673854       16       0.27212068      -0.37116027       0.11262983
H        2.21345746       5.88472260       3.70013501       17      -0.10023956       0.21876712      -0.47542486
H       -2.17594051       5.69103005       8.57486589       18      -0.34658742      -1.05216980       0.59012705
H        8.50989035       0.11516538       1.04989266       19      -0.05908991       0.24081150      -0.05104769
H        0.40775882      -2.23747672       8.74384804       20      -0.26862180       0.29611406       0.55477154
H        5.96190145       8.08903693       0.90177397       21      -0.07188812      -0.29718709      -0.20463131