80
Lattice="8.94053211 0.0 0.0 -3.46508627784534 10.315204600076965 0.0 -4.223602969894401 -4.153996922605778 9.916540965396853" Properties=species:S:1:pos:R:3:spacegroup_kinds:I:1:forces:R:3 spacegroup="P 1" unit_cell=conventional occupancy="_JSON {\"0\": {\"Zn\": 1}, \"1\": {\"Zn\": 1}, \"2\": {\"H\": 1}, \"3\": {\"H\": 1}, \"4\": {\"H\": 1}, \"5\": {\"H\": 1}, \"6\": {\"H\": 1}, \"7\": {\"H\": 1}, \"8\": {\"H\": 1}, \"9\": {\"H\": 1}, \"10\": {\"H\": 1}, \"11\": {\"H\": 1}, \"12\": {\"H\": 1}, \"13\": {\"H\": 1}, \"14\": {\"H\": 1}, \"15\": {\"H\": 1}, \"16\": {\"H\": 1}, \"17\": {\"H\": 1}, \"18\": {\"H\": 1}, \"19\": {\"H\": 1}, \"20\": {\"H\": 1}, \"21\": {\"H\": 1}, \"22\": {\"H\": 1}, \"23\": {\"H\": 1}, \"24\": {\"H\": 1}, \"25\": {\"H\": 1}, \"26\": {\"H\": 1}, \"27\": {\"H\": 1}, \"28\": {\"H\": 1}, \"29\": {\"H\": 1}, \"30\": {\"C\": 1}, \"31\": {\"C\": 1}, \"32\": {\"C\": 1}, \"33\": {\"C\": 1}, \"34\": {\"C\": 1}, \"35\": {\"C\": 1}, \"36\": {\"C\": 1}, \"37\": {\"C\": 1}, \"38\": {\"C\": 1}, \"39\": {\"C\": 1}, \"40\": {\"C\": 1}, \"41\": {\"C\": 1}, \"42\": {\"C\": 1}, \"43\": {\"C\": 1}, \"44\": {\"C\": 1}, \"45\": {\"C\": 1}, \"46\": {\"C\": 1}, \"47\": {\"C\": 1}, \"48\": {\"C\": 1}, \"49\": {\"C\": 1}, \"50\": {\"C\": 1}, \"51\": {\"C\": 1}, \"52\": {\"C\": 1}, \"53\": {\"C\": 1}, \"54\": {\"C\": 1}, \"55\": {\"C\": 1}, \"56\": {\"C\": 1}, \"57\": {\"C\": 1}, \"58\": {\"C\": 1}, \"59\": {\"C\": 1}, \"60\": {\"C\": 1}, \"61\": {\"C\": 1}, \"62\": {\"S\": 1}, \"63\": {\"S\": 1}, \"64\": {\"S\": 1}, \"65\": {\"S\": 1}, \"66\": {\"N\": 1}, \"67\": {\"N\": 1}, \"68\": {\"N\": 1}, \"69\": {\"N\": 1}, \"70\": {\"O\": 1}, \"71\": {\"O\": 1}, \"72\": {\"O\": 1}, \"73\": {\"O\": 1}, \"74\": {\"O\": 1}, \"75\": {\"O\": 1}, \"76\": {\"O\": 1}, \"77\": {\"O\": 1}, \"78\": {\"O\": 1}, \"79\": {\"O\": 1}}" energy=79.16505432128906 free_energy=79.16505432128906 stress="-1.737716555595398 0.39534297585487366 1.0359808206558228 0.39534297585487366 -1.0651048421859741 -1.0851138830184937 1.0359808206558228 -1.0851138830184937 -2.4017815589904785" pbc="T T T"
Zn       4.72020885       7.41459328      -0.67572961        0     -11.06228638      41.53904724      11.93264294
Zn      -3.06587326       0.11595956       9.93473411        1      14.92700005       4.20277834     -12.65312481
H        4.36985064      -0.37597325       3.98111558        2      -0.66381514      -1.06378686       0.13193680
H       -4.04564949       5.45203131       7.32729319        3      -4.83533192     -35.93099594      -5.42226028
H        5.10319506       0.23272339       5.34416346        4      -2.19076920       1.80332160      -2.12672162
H       -3.72510207       6.33068373       4.38517206        5       4.53599834     -11.93621635       5.31662226
H        4.89900048       0.93788022       4.75575298        6      -2.83616734     -38.42775726     -48.40061188
H       -3.20758734       3.44866543       4.48857320        7       5.54422426      14.73443508      24.69598198
H        2.75526164       1.95091671       5.82632838        8      -7.37970829     -11.07232666      -9.64597130
H       -1.91078854       5.76422584       4.11207045        9       0.64648038      -7.17647743      31.37998772
H       -5.07122399       9.35796671       2.94574143       10      -0.60721582      -0.61606860      -0.83387339
H        6.26369906      -1.63759440       6.79045692       11      -3.41183805      -0.67654109       1.29269791
H        0.10226488      -1.40035878       5.14078239       12     -19.92251396      48.89288330      27.29299545
H        0.21262054       7.30701619       5.56793771       13      80.51276398     -21.86429787       3.06688786
H       -0.49263850       7.64820354       3.62044376       14       1.24075639       3.49159336      -0.02850068
H        1.78197764      -1.06808937       6.69486163       15      16.36617279      46.90512466     -28.32053566
H       -2.09804308       5.30133360       1.39158015       16      16.81807709     -12.97016239      -9.51409435
H        2.56853264      -0.72546276       9.17262222       17       1.64659941      -0.11029369       1.69857717
H        0.20109637       5.70027798       8.99183599       18       1.57006931       2.07605100     -16.35044289
H        0.07178121       1.61537715       0.79739450       19       1.03358078       7.13022709       0.34950152
H        1.94866769      -3.29697860       8.37803540       20      21.07597351      -7.05334091      -8.83412933
H       -1.15826402      10.34486313       0.27903031       21    -113.52592468    -156.57276917     145.59509277
H       -0.33047773       8.17646067      -0.22413286       22     -16.09651375     -12.15597153      22.69151688
H        0.90114490      -1.71567898      10.06148405       23      42.70620728      42.35587311     -13.17755890
H        1.24046756       6.92867552       1.01862473       24      -1.78827131      -1.90821075      13.37309742
H       -0.21085317      -0.36829557       9.22912497       25      -3.29776669       3.68343234      -2.29018426
H       -1.19879243       2.21621779       8.21875314       26       2.67550206     -29.41066360     -14.31157398
H        2.82348073       4.68856458       2.54608598       27       0.54915786      -2.19443250       3.92922425
H        1.12531767       1.76101471       7.89346448       28       5.68719101      -5.04627275      -1.42364383
H        1.42183281       4.54611642       2.54627320       29      14.69062614      -3.78576255     -14.87021065
C        4.59399847       4.25785277       0.79732888       30       2.38939643     -10.10454941     -11.95388317
C       -4.28849436       0.95933952       9.19044381       31      -9.77200699      11.26700211       3.67199373
C       -0.83981141       2.98772675       1.98948337       32       3.28340507      19.46392441     -10.56704521
C        2.63836862       3.70413418       7.34564651       33     -13.49667835      -2.55907464       8.11790943
C        4.29463434       4.07179599       2.89864673       34      -3.29833221       1.22910869      -3.17995620
C       -3.82276873       3.33249666       6.69793492       35     165.37191772     -30.76946259    -176.55740356
C        5.75642056       2.14377865       3.12146604       36      -5.26222324       2.22304344       1.60104692
C       -4.44098200       3.30413100       7.24189141       37    -225.19418335     -51.30760193     106.64945984
C        4.10454274       1.28263705       3.84304446       38       5.96929741      -0.88654315      14.58861065
C       -3.45449668       6.68853480       6.98187165       39     -91.49689484       7.59672832      18.96096420
C        4.86139547       1.39716758       5.25668786       40     -16.34169197       1.84850478      25.82532501
C       -1.86009154       4.18090269       6.22817045       41    2081.32495117   -1645.68725586   -3943.66357422
C       -3.15746320       7.41252834       2.11164630       42     -26.15731430     -10.49436569      19.21121979
C        5.04550185      -2.13582822       6.46192012       43      -1.39184904       4.80609131      10.00502300
C        0.22766292      -1.70567333       4.90340163       44      15.50049686     -34.48163605     -29.29695129
C       -0.33288147       7.25991354       5.59478443       45     -61.97874451     -10.48980141       3.47213626
C       -1.58436438       8.81373794       4.44917073       46      -0.48223338      -9.14805317      11.38134861
C        2.60736756      -1.27506719       6.31574039       47       1.20568943      -3.07713127      -4.92594624
C        0.04394608       6.68808631       3.28577707       48      -9.97919846      -5.20923042      10.34143543
C        1.46688291      -1.52246107       7.10222813       49     -19.60811996      -7.41639614      36.73008728
C       -2.43555118       7.78618259       1.61792498       50      22.40347672      18.65678215     -15.94432163
C        2.01233129      -0.93323954       8.35653502       51      -6.62062502     -26.95162010     -14.81531143
C       -0.88725520       5.73534467      10.64400925       52       8.36855412      16.99096870      17.66753006
C        2.02835263       0.45747377      -0.40596167       53     -63.00263596      57.59320068     -30.32976913
C       -1.27544096       6.91417547       9.82414356       54      12.84244347       9.24962234      10.53997135
C        2.13628935       0.27400114       0.39178260       55     169.97506714      79.85169983    -139.42080688
C        0.75094809       9.58690562       0.98919096       56      21.43295670       0.64582825       7.32415533
C       -1.25354135      -4.20031331       9.39461883       57       1.41356468      73.39229584      14.56842136
C        0.64960126       8.42824553       1.33697183       58       1.34791708     -20.77488327      24.07016182
C        0.66269145      -2.01348259      10.11983557       59     -35.88233185     -43.04644775      12.14902401
C        2.50446302       8.52651693       1.14087369       60     -33.06177902     -10.70911598      37.06647873
C       -1.05487141      -2.41257979       9.37437010       61      22.87635040     -23.68504906      -1.55354404
S        3.74689352       2.86861330       3.61453403       62      -7.41254854     -24.04493523      -8.38546085
S       -2.15106536       4.39780925       6.74466442       63   -1894.96582031    1824.06481934    3811.69970703
S        7.07156324       1.61136738       4.24577523       64     -16.86602974     -46.70513916     -14.08667564
S       -4.91462620       4.73756506       6.37046147       65      -3.39333057      46.34869385     -20.83082581
N       -2.06621119       6.74029760       1.27282709       66       2.62099123       4.14186144      -3.06574297
N        4.10012157      -1.96179119       8.44321350       67      -7.56761789       1.16400933      -7.79039764
N        3.28784705       8.65789951       0.74075020       68      48.10638428      -1.87892413       1.83828354
N       -1.80275876      -1.96074041       9.54429291       69     -45.02342224      12.54820156      12.02596378
O        6.20792891       5.69956179       1.23788183       70     -14.05426025       3.96562433       2.91433859
O       -4.61808996       2.09141435       9.77096761       71       8.18330097      -5.05490303     -16.37626266
O        4.36901281       4.91415449       1.61802108       72       0.36714888       9.07765388      14.42059326
O       -1.62251215       1.18403386       8.42313851       73      -8.48478317      10.49774361       6.36853123
O       -1.43578122       2.38330553       1.68098027       74     -40.97957611     -19.28828430      12.73161316
O        1.65482221       2.75831825       8.41191164       75      15.10820961      -6.84166908       2.98383999
O       -0.26591995       3.18643442       2.70791008       76      25.52352524      14.38026333      57.85520554
O        3.07078256       2.13936096       6.61214827       77     -22.65819168       4.78548002      16.18365669
O        0.32118244       2.19086022       8.78913735       78      10.03637695     -41.08401108      11.75618744
O        0.94215523       5.67421842       2.49010618       79      -5.82695341      -0.93540287       3.48106623
80
Lattice="8.94053211 0.0 0.0 -3.46508627784534 10.315204600076965 0.0 -4.223602969894401 -4.153996922605778 9.916540965396853" Properties=species:S:1:pos:R:3:spacegroup_kinds:I:1:forces:R:3 spacegroup="P 1" unit_cell=conventional occupancy="_JSON {\"0\": {\"Zn\": 1}, \"1\": {\"Zn\": 1}, \"2\": {\"H\": 1}, \"3\": {\"H\": 1}, \"4\": {\"H\": 1}, \"5\": {\"H\": 1}, \"6\": {\"H\": 1}, \"7\": {\"H\": 1}, \"8\": {\"H\": 1}, \"9\": {\"H\": 1}, \"10\": {\"H\": 1}, \"11\": {\"H\": 1}, \"12\": {\"H\": 1}, \"13\": {\"H\": 1}, \"14\": {\"H\": 1}, \"15\": {\"H\": 1}, \"16\": {\"H\": 1}, \"17\": {\"H\": 1}, \"18\": {\"H\": 1}, \"19\": {\"H\": 1}, \"20\": {\"H\": 1}, \"21\": {\"H\": 1}, \"22\": {\"H\": 1}, \"23\": {\"H\": 1}, \"24\": {\"H\": 1}, \"25\": {\"H\": 1}, \"26\": {\"H\": 1}, \"27\": {\"H\": 1}, \"28\": {\"H\": 1}, \"29\": {\"H\": 1}, \"30\": {\"C\": 1}, \"31\": {\"C\": 1}, \"32\": {\"C\": 1}, \"33\": {\"C\": 1}, \"34\": {\"C\": 1}, \"35\": {\"C\": 1}, \"36\": {\"C\": 1}, \"37\": {\"C\": 1}, \"38\": {\"C\": 1}, \"39\": {\"C\": 1}, \"40\": {\"C\": 1}, \"41\": {\"C\": 1}, \"42\": {\"C\": 1}, \"43\": {\"C\": 1}, \"44\": {\"C\": 1}, \"45\": {\"C\": 1}, \"46\": {\"C\": 1}, \"47\": {\"C\": 1}, \"48\": {\"C\": 1}, \"49\": {\"C\": 1}, \"50\": {\"C\": 1}, \"51\": {\"C\": 1}, \"52\": {\"C\": 1}, \"53\": {\"C\": 1}, \"54\": {\"C\": 1}, \"55\": {\"C\": 1}, \"56\": {\"C\": 1}, \"57\": {\"C\": 1}, \"58\": {\"C\": 1}, \"59\": {\"C\": 1}, \"60\": {\"C\": 1}, \"61\": {\"C\": 1}, \"62\": {\"S\": 1}, \"63\": {\"S\": 1}, \"64\": {\"S\": 1}, \"65\": {\"S\": 1}, \"66\": {\"N\": 1}, \"67\": {\"N\": 1}, \"68\": {\"N\": 1}, \"69\": {\"N\": 1}, \"70\": {\"O\": 1}, \"71\": {\"O\": 1}, \"72\": {\"O\": 1}, \"73\": {\"O\": 1}, \"74\": {\"O\": 1}, \"75\": {\"O\": 1}, \"76\": {\"O\": 1}, \"77\": {\"O\": 1}, \"78\": {\"O\": 1}, \"79\": {\"O\": 1}}" energy=-132.405517578125 free_energy=-132.405517578125 stress="-0.953372597694397 0.9240347146987915 0.005602291785180569 0.9240347146987915 -0.6061292290687561 -1.4188724756240845 0.005602291785180569 -1.4188724756240845 -2.5166289806365967" pbc="T T T"
Zn       4.83983110       8.08706766      -1.63549111        0      54.35669708      -6.62181520     -39.62305832
Zn      -4.06242900       0.60743597       9.71275880        1      -9.43751144       1.14445210     -10.88066578
H        5.36948943      -1.37358364       4.76960241        2       5.31781340      -3.94574547      -2.45997715
H       -3.04884555       4.80404680       6.33348301        3      -8.68164825      -7.68246651      -5.67570782
H        4.25831716      -0.49427964       4.83915190        4       8.87767029      -3.81496525     -16.38891792
H       -3.00987459       5.43696549       4.24810033        5       4.76881218       4.35450792      -1.71494615
H        5.88773389       1.44971210       3.75603664        6      -4.01566410       3.46664262       5.37734795
H       -2.20934311       2.78560375       5.48605806        7     -10.59432602      -4.99585247     -10.06281376
H        3.15962908       0.95306200       5.61726383        8     -43.33619308      95.01821136      59.03779602
H       -2.91026097       6.67517745       4.68910194        9      -0.54425216      -3.18497133      -0.07924706
H       -6.07107820       8.43086808       3.85466220       10      -0.17411835      -1.79065418       2.96296167
H        6.90472413      -2.60273790       7.60060665       11       3.53727722     -11.99551201      -2.80395317
H        0.03515700      -2.34707252       5.80092564       12      -3.19530940       2.22825313       0.57676756
H        1.14281855       8.29432917       6.47746662       13      -1.09795773      -2.83247900       0.28523982
H       -1.48225418       6.64833711       2.74394423       14       1.38110363       6.36417246       3.00097227
H        2.76905518      -1.20627877       6.00652145       15      -1.54656696     -10.24465084       1.97822261
H       -1.34281849       6.21848738       2.36619942       16     -10.92689037      -1.04951477      30.43234825
H        2.00646704      -0.67167890       9.69516238       17      24.81928253      18.38120461     -14.45857811
H       -0.25215398       6.66891199       8.00602988       18       4.86970329       1.47583890       2.88598990
H        0.93057209       2.18595155       0.10110901       19       1.32418776       1.09319925       2.13280106
H        2.91857837      -4.15036601       8.18163723       20      -2.81501341      -7.49133682       3.63376141
H       -2.13089613       9.53149666      -0.72090722       21      10.02594185      11.70112610       1.80872297
H       -0.68013047       7.21992634       0.01403939       22      -0.44620794      -1.29626322       0.11249930
H        1.76834176      -2.52354007      10.12669324       23      -1.67548883       0.15151876      -4.72244740
H        0.25446392       6.18352591       0.84596416       24       0.39205897      -1.49506259      -3.97593164
H        0.32313828      -0.07225209       9.85399968       25       1.40534627      -0.80183578      -0.96717727
H       -2.12328121       1.22681752       8.41142752       26      19.30106735      -7.33564043       3.52454734
H        3.80824805       4.57497106       1.75149646       27      -0.15825441       6.75802803      -8.12007236
H        0.49568413       2.35362173       8.38152525       28       0.25293899     -17.53557396      -0.10043454
H        2.40413517       5.52433658       3.53166083       29      52.32546997     -28.60357285      31.99031830
C        3.91918258       3.25797389       1.76706313       30      -4.21472263       4.11588192      -2.13453460
C       -3.29184075       1.71251818       8.26177334       31     -13.18091393       2.05464458     -15.88920975
C       -0.33790799       3.33590082       2.83152253       32      -3.11042356      -0.02918869      -2.66204023
C        3.30917515       2.88935627       6.47473152       33   -2835.05639648      12.74108887    1591.77734375
C        3.29699588       4.55413504       2.69167459       34       6.44892788       8.60846043     -41.82716751
C       -4.74260943       4.25717200       7.67239051       35     -12.93753624     -80.61339569     264.66409302
C        6.75188584       1.86965104       4.11939186       36      13.25142956      -2.50832009       4.07199669
C       -5.24587168       3.72176954       6.24192378       37    -300.28808594     -83.95998383      19.50275421
C        3.22911818       1.58838247       4.84304446       38    -133.41629028    -210.18952942    -190.80357361
C       -2.46902770       6.60759373       6.50884469       39      12.37044525      -6.91061211      -3.93192768
C        4.14721494       2.05337228       4.95276777       40     379.81240845    -402.81607056    -731.69464111
C       -1.12681011       5.15713897       7.19833499       41       2.35496426       1.88122404      -6.90348530
C       -3.28147583       8.32993168       1.19811863       42      -3.57648182       2.88396192       0.58852649
C        4.04703404      -1.13591393       5.46781234       43      -4.71876621      -9.05359650       7.50837135
C       -0.66993433      -1.19163751       4.91222724       44       1.71513176       1.68930340       0.87530273
C        0.39548062       7.14466289       6.57968943       45      -3.88467002       4.18310022       0.14207673
C       -1.49314059       8.96565718       3.70171930       46      -0.71528387      -1.41556811       0.78926271
C        2.58552152      -2.27211998       7.29348622       47       0.68117654      -4.70305109      -1.68766451
C       -0.90127982       5.81324509       3.41607125       48       0.95453548      -0.54017180      -1.38880217
C        0.57663783      -2.51849254       7.08198679       49     -24.68003464     -13.92302132     -10.22916031
C       -1.44438751       8.52473551       2.52995377       50       1.57740033       0.98719317      -2.13488221
C        1.32029192      -1.93323942       7.35653526       51      26.24502182      16.24391937      10.22161674
C        0.11118232       4.80380406      11.12183319       52       0.75601375       0.40867627      -0.43212867
C        2.74228371       1.35049964      -1.37673542       53      -7.36040545      -2.60992074       4.42893314
C       -0.27544144       7.02298698       9.29016749       54      -0.71458852      -1.89585412      -5.70776653
C        2.38886764       0.97920253       1.03013184       55      -0.48063290       0.36926189      -2.36112809
C        1.67165794      10.14864739       0.08008452       56       6.34996700       5.00438166       5.53582621
C       -2.25351835      -3.63833211       9.71140870       57      -4.65907764      -4.69103813      -4.13758755
C        0.61925900       8.90968029       2.33690949       58      -2.42497063       1.28392673       2.27521014
C        1.35707173      -1.04044391       9.89471967       59     -30.72649193     -19.68615341      15.95928478
C        2.56577318       7.74582018       0.14154167       60       3.41428828       4.19452429      -6.09549856
C       -2.05225280      -1.41515203       9.63671297       61       2.50178289       5.10219049       4.78237057
S        3.27702304       3.66337997       4.58801509       62    -196.68606567     190.16828918    -443.12655640
S       -1.21742548       3.80189989       7.72985130       63      17.41650772      -7.62741947       9.67962265
S        7.98472988       2.61058251       5.24059445       64      -3.56432128      -1.75486541       0.12127495
S       -4.72853870       4.95545254       7.31291140       65      94.78446960     312.68041992       9.27982140
N       -1.11846658       6.11601136       1.72778404       66       8.72939873      -1.66916442     -35.13167953
N        4.63230784      -1.52275813       8.36923375       67       1.46011269       2.07400727       4.25669098
N        3.05370226       9.13593108       0.42923135       68       3.52153254      -4.52931786       4.24451780
N       -2.80080247      -1.80493297       8.65463697       69      -6.49202108       2.71809912      -2.81000137
O        5.40121730       6.11632799       2.18006282       70       1.78696871      -1.28640842      -2.17826104
O       -5.44977890       1.09568532      10.74566156       71      -9.93050480      -0.03963268       6.66332436
O        5.34114490       5.91408862       0.75503970       72      -2.50157046      -5.44619846       4.91415071
O       -2.62204789       1.84703957       8.99160148       73      10.75906467       8.94072628      18.16242790
O       -0.43578635       3.22999798       1.06995655       74       5.83702660       2.65742826      -4.20382690
O        2.41911224       1.76278043       7.46684126       75     448.99951172     665.32556152    -522.10400391
O       -1.21147599       2.52764955       1.71136709       76      -3.30557656      -5.76878548       3.66058779
O        3.65803309       2.80388778       6.23133748       77    2538.88549805    -444.04330444      -1.49230957
O        1.29447485       2.64689821       9.59831189       78     -18.57445908      -0.50376177      41.90863419
O        1.93993168       5.81113020       3.29127880       79     -57.72299957      32.47875595     -22.65244865
80
Lattice="8.94053211 0.0 0.0 -3.46508627784534 10.315204600076965 0.0 -4.223602969894401 -4.153996922605778 9.916540965396853" Properties=species:S:1:pos:R:3:spacegroup_kinds:I:1:forces:R:3 spacegroup="P 1" unit_cell=conventional occupancy="_JSON {\"0\": {\"Zn\": 1}, \"1\": {\"Zn\": 1}, \"2\": {\"H\": 1}, \"3\": {\"H\": 1}, \"4\": {\"H\": 1}, \"5\": {\"H\": 1}, \"6\": {\"H\": 1}, \"7\": {\"H\": 1}, \"8\": {\"H\": 1}, \"9\": {\"H\": 1}, \"10\": {\"H\": 1}, \"11\": {\"H\": 1}, \"12\": {\"H\": 1}, \"13\": {\"H\": 1}, \"14\": {\"H\": 1}, \"15\": {\"H\": 1}, \"16\": {\"H\": 1}, \"17\": {\"H\": 1}, \"18\": {\"H\": 1}, \"19\": {\"H\": 1}, \"20\": {\"H\": 1}, \"21\": {\"H\": 1}, \"22\": {\"H\": 1}, \"23\": {\"H\": 1}, \"24\": {\"H\": 1}, \"25\": {\"H\": 1}, \"26\": {\"H\": 1}, \"27\": {\"H\": 1}, \"28\": {\"H\": 1}, \"29\": {\"H\": 1}, \"30\": {\"C\": 1}, \"31\": {\"C\": 1}, \"32\": {\"C\": 1}, \"33\": {\"C\": 1}, \"34\": {\"C\": 1}, \"35\": {\"C\": 1}, \"36\": {\"C\": 1}, \"37\": {\"C\": 1}, \"38\": {\"C\": 1}, \"39\": {\"C\": 1}, \"40\": {\"C\": 1}, \"41\": {\"C\": 1}, \"42\": {\"C\": 1}, \"43\": {\"C\": 1}, \"44\": {\"C\": 1}, \"45\": {\"C\": 1}, \"46\": {\"C\": 1}, \"47\": {\"C\": 1}, \"48\": {\"C\": 1}, \"49\": {\"C\": 1}, \"50\": {\"C\": 1}, \"51\": {\"C\": 1}, \"52\": {\"C\": 1}, \"53\": {\"C\": 1}, \"54\": {\"C\": 1}, \"55\": {\"C\": 1}, \"56\": {\"C\": 1}, \"57\": {\"C\": 1}, \"58\": {\"C\": 1}, \"59\": {\"C\": 1}, \"60\": {\"C\": 1}, \"61\": {\"C\": 1}, \"62\": {\"S\": 1}, \"63\": {\"S\": 1}, \"64\": {\"S\": 1}, \"65\": {\"S\": 1}, \"66\": {\"N\": 1}, \"67\": {\"N\": 1}, \"68\": {\"N\": 1}, \"69\": {\"N\": 1}, \"70\": {\"O\": 1}, \"71\": {\"O\": 1}, \"72\": {\"O\": 1}, \"73\": {\"O\": 1}, \"74\": {\"O\": 1}, \"75\": {\"O\": 1}, \"76\": {\"O\": 1}, \"77\": {\"O\": 1}, \"78\": {\"O\": 1}, \"79\": {\"O\": 1}}" energy=588.9600219726562 free_energy=588.9600219726562 stress="-1.328279733657837 0.04267197847366333 -0.4384142756462097 0.04267197847366333 -2.900324583053589 0.2123858630657196 -0.4384142756462097 0.2123858630657196 -0.5469340682029724" pbc="T T T"
Zn       5.17696844       7.10610461      -1.31579427        0       4.85066175      14.16114235     -35.60761261
Zn      -3.21906512       1.46969840       8.93148079        1     -41.49544525     -48.45983887      -9.67990112
H        4.45212519      -0.44827911       5.23925775        2     111.66365051     584.85034180     170.97096252
H       -2.05105819       5.46727311       5.33949289        3      12.70355129     -12.92430019      -7.44344807
H        3.67429196      -0.65815958       3.98934410        4     -43.71685028      78.91733551     -32.44461060
H       -2.01699698       6.08919361       3.27101844        5       0.12596059      -9.95308304       5.69572687
H        5.22823478       1.28521440       2.84905112        6     -49.07645416      -8.00277901      77.34347534
H       -1.22493467       2.28089570       5.06931097        7      63.41579437     -73.55342102     -43.85637665
H        2.36247799      -0.04312443       6.42771141        8      21.58737183      79.41336060     -80.11845398
H       -3.73691803       6.85827444       4.22687591        9       3.68931293       8.97723389       1.88244724
H       -6.94704195       7.56276279       3.37995889       10       6.10308075     -10.76172352      -3.96486807
H        6.63077188      -1.62874961       6.90185603       11       4.73711586      27.39676476       2.78962350
H       -0.65288206      -3.25486622       5.90049597       12       2.76186919       2.06591654      -0.30466348
H        0.14612757       9.21608764       6.22316257       13     -63.88421631      -9.26701260      -5.37905598
H       -1.67864330       7.11803319       1.94342679       14      -4.04801178      -7.43353844      -7.15478611
H        3.41668206      -0.76871743       5.11436085       15    -139.17851257     -26.70070076     -18.11201096
H       -0.42296713       5.27381855       2.80087321       16      -2.57036972       2.78206491       1.01207316
H        2.35987809      -0.48511149       8.98794444       17      -9.07044888      -0.81526709       5.80837297
H       -0.53900071       6.25502919       8.98976079       18       2.88581371       5.39624119       2.55844641
H        0.43807748       2.99871411       0.54545720       19      17.95775604      55.13727570      32.17976379
H        2.71562440      -4.93981267       7.66504205       20       4.37258339      10.15892506      -0.78959239
H       -2.01832633       8.71126123      -0.41386105       21      -3.08128619      -2.60691714       0.12064242
H       -0.59991952       7.39389391      -0.21866847       22       6.13817787      -1.12138045       2.53239393
H        2.26278580      -3.13885217       9.25603961       23       1.50737977       2.05917454       3.59140730
H        0.30847094       5.55431162       1.22919800       24      -1.01983166       2.09077644     -10.24745178
H        0.40907953       0.17256797      10.03217920       25      -1.08125520      -4.27232504       6.77370358
H       -1.56191847       1.57290721       8.50584870       26      46.56651688     -92.74491882      95.69642639
H        3.11722803       4.00230478       0.96103790       27      -1.35758638       6.28593540      -5.91252804
H        0.35474046       2.57145975       7.54608474       28     -12.27267551       3.27188039     -10.41000175
H        3.34629608       6.11664498       4.10207215       29      -3.67264867      44.98529053     -14.14423370
C        3.74164088       3.58064903       2.75924026       30      -3.07857823      29.41901779      20.06963348
C       -2.32032551       1.53610373       9.07962345       31      -3.19898033       1.73562765      50.68258286
C        0.55304167       3.63282749       2.21209569       32      42.54204559     -27.15619087      31.09584427
C        3.80447806       3.17049347       5.48575403       33    -127.41101837     287.94052124     270.84945679
C        3.18771462       5.34670992       1.88487434       34      -1.10320163     -28.30939293      24.71255112
C       -4.91494670       3.85694267       7.79970220       35      11.89194107     -33.29236984     -18.20535660
C        6.00234694       2.67796060       3.17872453       36     -44.82780457     -38.29092407      35.51179123
C       -5.65606441       3.62928362       6.80760858       37      14.93573380     -31.01334763      22.45775795
C        4.22797580       1.10358932       5.40193552       38    4599.35351562     519.94482422    1818.37768555
C       -2.70925865       5.61124011       6.00603040       39       9.54873371      26.83716774      16.47750092
C        4.03219055       1.20439048       5.31794406       40   -4556.50634766   -5983.24218750   -2421.07983398
C       -2.00217489       6.15228632       8.06740558       41      -3.00764990     -12.86380959      -3.36697340
C       -3.45709724       9.26768053       0.49803454       42     -97.13999939     -41.81864929      26.87261581
C        4.85561456      -2.07417115       4.67999718       43       2.49651146       7.05652857      -5.69340801
C       -1.01212135      -2.02451872       4.92448739       44     -20.81737900      14.14951420       9.05646610
C        1.14291440       7.89346006       7.47408610       45      21.76463699       1.80783868      -1.73570061
C       -1.42064458       8.35759796       2.80245139       46     -59.20809937      47.74028015    -103.65332031