67
Lattice="5.34906208 0.0 0.0 -0.0021394207671076777 7.767820295379312 0.0 -2.687569850027315 -3.5940029843819183 16.132822474434803" Properties=species:S:1:pos:R:3:spacegroup_kinds:I:1:forces:R:3 spacegroup="P 1" unit_cell=conventional occupancy="_JSON {\"0\": {\"Zn\": 1}, \"1\": {\"Zn\": 1}, \"2\": {\"Zn\": 1}, \"3\": {\"Zn\": 1}, \"4\": {\"Zn\": 1}, \"5\": {\"P\": 1}, \"6\": {\"P\": 1}, \"7\": {\"H\": 1}, \"8\": {\"H\": 1}, \"9\": {\"H\": 1}, \"10\": {\"H\": 1}, \"11\": {\"H\": 1}, \"12\": {\"H\": 1}, \"13\": {\"H\": 1}, \"14\": {\"H\": 1}, \"15\": {\"H\": 1}, \"16\": {\"H\": 1}, \"17\": {\"H\": 1}, \"18\": {\"H\": 1}, \"19\": {\"H\": 1}, \"20\": {\"H\": 1}, \"21\": {\"H\": 1}, \"22\": {\"H\": 1}, \"23\": {\"H\": 1}, \"24\": {\"H\": 1}, \"25\": {\"H\": 1}, \"26\": {\"H\": 1}, \"27\": {\"C\": 1}, \"28\": {\"C\": 1}, \"29\": {\"C\": 1}, \"30\": {\"C\": 1}, \"31\": {\"C\": 1}, \"32\": {\"C\": 1}, \"33\": {\"C\": 1}, \"34\": {\"C\": 1}, \"35\": {\"C\": 1}, \"36\": {\"C\": 1}, \"37\": {\"C\": 1}, \"38\": {\"C\": 1}, \"39\": {\"C\": 1}, \"40\": {\"C\": 1}, \"41\": {\"C\": 1}, \"42\": {\"C\": 1}, \"43\": {\"C\": 1}, \"44\": {\"C\": 1}, \"45\": {\"C\": 1}, \"46\": {\"C\": 1}, \"47\": {\"C\": 1}, \"48\": {\"C\": 1}, \"49\": {\"C\": 1}, \"50\": {\"C\": 1}, \"51\": {\"C\": 1}, \"52\": {\"C\": 1}, \"53\": {\"O\": 1}, \"54\": {\"O\": 1}, \"55\": {\"O\": 1}, \"56\": {\"O\": 1}, \"57\": {\"O\": 1}, \"58\": {\"O\": 1}, \"59\": {\"O\": 1}, \"60\": {\"O\": 1}, \"61\": {\"O\": 1}, \"62\": {\"O\": 1}, \"63\": {\"O\": 1}, \"64\": {\"O\": 1}, \"65\": {\"O\": 1}, \"66\": {\"O\": 1}}" energy=-438.59130859375 free_energy=-438.59130859375 stress="-0.007574007380753756 -0.00018991374236065894 -0.002684930572286248 -0.00018991374236065894 -0.004176044836640358 0.0013081392971798778 -0.002684930572286248 0.0013081392971798778 -0.0024382825940847397" pbc="T T T"
Zn       1.36105501       0.87346327       1.16209086        0      -0.31955394      -0.06058764      -0.04870962
Zn      -1.33397154       3.24670265      14.91877687        1      -0.39236686       0.07798730       0.16346836
Zn       3.99446134       6.32480924       1.32271786        2       0.06589416       0.23558670       0.11491886
Zn       1.30735715      -2.20971859      14.79062967        3       0.02213430      -0.20296653      -0.01895332
Zn      -2.69672987       0.26094608      16.12917433        4       0.22746465       0.03630156      -0.03152051
P        2.65938717       3.57936367       2.02355866        5      -1.32783628       0.23511991      -0.38684571
P       -0.02476414       0.53559143      14.07594893        6      -2.02324319       0.12428483       0.56864953
H        1.62105209       6.00401696       1.29339174        7      -0.08813289       0.09730123       0.04600672
H       -1.06424378      -1.88976385      14.80472998        8      -0.03054593      -0.16099961       0.01379868
H        4.31851717       1.74599275       0.97997383        9      -0.16439137      -0.06569751       0.22834131
H        1.61355063       2.37120270      15.15113911       10      -0.51278657       0.00901031      -0.65363693
H        0.81346244       4.86147389       3.89349676       11       0.08681718      -0.03466273       0.06271009
H       -1.86963062      -0.74813366      12.17559070       12      -0.04173288      -0.06657052       0.00367403
H        0.80780400       5.04761526       6.32730722       13      -0.26611745       0.16250756      -0.00131070
H        3.48521961      -0.93321435       9.74386511       14      -0.02567609      -0.05344006       0.00659396
H       -0.84793501       2.82998631       6.48358250       15       0.05394652      -0.05631776       0.05153248
H        1.84338771       1.28592630       9.59888418       16       0.07464308       0.03335352      -0.05376507
H        4.53775722       2.69911382       4.09311348       17       0.33680820      -0.20993340      -0.36550626
H        1.83880310       1.41821667      12.04187665       18       0.20842651       0.06590871       0.13461398
H        0.79770920       5.16222309       8.25790473       19       0.03296433       0.03646544       0.02048527
H        3.47884753      -1.04449010       7.81448484       20      -0.06398959      -0.06421882       0.01666122
H        0.78514348       5.27662116      10.70362575       21      -0.04231293       0.01979093      -0.05224892
H        3.45981893      -1.15623320       5.36920423       22       0.08559465       0.03138465       0.10104737
H       -0.99573192       2.93940038      10.86051154       23       0.41693181      -0.22533643       0.16865620
H        1.70802855       1.17991699       5.22559896       24       0.15859443       0.06279317      -0.13593408
H       -0.89621412       2.88059781       8.42565632       25      -0.27470374       0.06213117      -0.00645316
H        1.78218837       1.25051613       7.68269931       26       0.05129620       0.00420126      -0.08091657
C        2.66905096       3.76231641       3.79635541       27      -0.17494665       0.07369012       0.29560518
C       -0.04641333       0.35183118      12.28340406       28       1.21243048       0.74740702      -0.03663038
C        1.63569682       4.42735511       4.46492866       29      -0.26917610       0.12694260       0.11708313
C       -1.04640883      -0.31468037      11.61247988       30      -0.85865062      -0.45542079      -0.23507509
C        1.62630472       4.51896066       5.85968608       31      -0.14525728       0.21858916      -0.19916254
C       -1.04064199      -0.40650274      10.21902292       32      -0.47042200      -0.11251631       0.41512448
C        2.63300155       3.96747903       6.65513711       33       0.96427226      -0.92097127      -1.32006788
C       -0.04203518       0.19041032       9.46498115       34       0.65374207      -0.00339773      -0.97277468
C        3.67978533       3.29163871       5.94381162       35      -0.32474378       0.33067310       0.17073904
C        1.02282992       0.82524224      10.13788911       36      -0.19743906       0.09912754       0.74714243
C        3.70920925       3.20422752       4.55203386       37      -0.32699245       0.19491595       0.78099704
C        1.03163004       0.90936902      11.53350953       38      -0.69340581      -0.27803445      -0.19830991
C        2.62160504       4.00548733       8.11083160       39      -0.44983828       0.36170584       0.22352377
C       -0.05050366       0.11344024       7.97013343       40       0.33099228       0.15578702      -0.02863510
C        1.60554211       4.67522405       8.80336296       41      -0.47880900       0.34077200       0.13463971
C       -1.06377247      -0.56152819       7.26910175       42      -0.12923992      -0.06524055       0.25003138
C        1.58533530       4.74270782      10.19269141       43      -0.76924300       0.47748289      -0.30509597
C        4.26796554      -0.62762348       5.88154734       44      -0.72650611      -0.41934362       0.12167463
C        2.55023458       4.11345228      10.94841410       45       1.04539275      -0.51522505       0.31192440
C       -0.11254060       0.00614018       5.13144218       46       1.16985929       0.43834817      -0.10043666
C        3.59666368       3.43085627      10.27649152       47      -1.00375736       0.33476451       0.05951114
C        0.93582838       0.68259949       5.79966849       48      -0.41127267      -0.09206945       0.12175621
C        3.60009280       3.39331427       8.88798487       49       1.32627928      -0.60647976       0.36592188
C        0.97167602       0.71862567       7.18888397       50      -0.31709284      -0.01056695       0.19138461
C        2.52136106       4.15229279      12.43381451       51      -0.23561884       0.27251014       1.03271985
C       -0.11292263      -0.03541893       3.64099444       52      -1.11821127      -0.74507105       1.07687497
O        3.88402819       4.31492780       1.47139887       53       0.57031816       0.27722803      -0.24077159
O        1.19488566      -0.19987281      14.60376627       54       0.89180064      -0.47491154       0.30386722
O        1.32936745       4.20768122       1.48931050       55       0.65074390      -0.34229299       0.26726699
O       -1.35611369      -0.09343523      14.65640197       56       0.96606773       0.41513374      -0.62451148
O        2.80351950       2.08182334       1.71474361       57       0.22740729      -0.27870777      -0.07867967
O        0.11390566       2.03345017      14.44651756       58       0.22876404      -0.20241255      -0.31488246
O        1.79881062      -2.69851144      13.00985821       59       0.54010147      -0.61497855      -0.83749825
O        4.49141718       6.81655644       3.12659619       60       0.14633776      -0.06127312      -0.45656261
O       -2.14452555       3.28667461      13.08088760       61      -0.16176990       0.26059750      -0.50673616
O        0.54890922       0.82818173       3.03544290       62       0.82497621       0.77079707      -0.99964476
O        2.09407815       6.80525702       0.95811822       63       0.15256186      -0.09474391      -0.06822261
O       -0.59081192      -2.69057177      15.15080139       64       0.06291540       0.22768989       0.06272610
O        5.03954509       1.65769166       0.30411525       65       0.32191440       0.30011490       0.01766321
O        2.34865328       2.46053107      15.79180581       66       0.72738850      -0.22401719       0.59016287
67
Lattice="5.34906208 0.0 0.0 -0.0021394207671076777 7.767820295379312 0.0 -2.687569850027315 -3.5940029843819183 16.132822474434803" Properties=species:S:1:pos:R:3:spacegroup_kinds:I:1:forces:R:3 spacegroup="P 1" unit_cell=conventional occupancy="_JSON {\"0\": {\"Zn\": 1}, \"1\": {\"Zn\": 1}, \"2\": {\"Zn\": 1}, \"3\": {\"Zn\": 1}, \"4\": {\"Zn\": 1}, \"5\": {\"P\": 1}, \"6\": {\"P\": 1}, \"7\": {\"H\": 1}, \"8\": {\"H\": 1}, \"9\": {\"H\": 1}, \"10\": {\"H\": 1}, \"11\": {\"H\": 1}, \"12\": {\"H\": 1}, \"13\": {\"H\": 1}, \"14\": {\"H\": 1}, \"15\": {\"H\": 1}, \"16\": {\"H\": 1}, \"17\": {\"H\": 1}, \"18\": {\"H\": 1}, \"19\": {\"H\": 1}, \"20\": {\"H\": 1}, \"21\": {\"H\": 1}, \"22\": {\"H\": 1}, \"23\": {\"H\": 1}, \"24\": {\"H\": 1}, \"25\": {\"H\": 1}, \"26\": {\"H\": 1}, \"27\": {\"C\": 1}, \"28\": {\"C\": 1}, \"29\": {\"C\": 1}, \"30\": {\"C\": 1}, \"31\": {\"C\": 1}, \"32\": {\"C\": 1}, \"33\": {\"C\": 1}, \"34\": {\"C\": 1}, \"35\": {\"C\": 1}, \"36\": {\"C\": 1}, \"37\": {\"C\": 1}, \"38\": {\"C\": 1}, \"39\": {\"C\": 1}, \"40\": {\"C\": 1}, \"41\": {\"C\": 1}, \"42\": {\"C\": 1}, \"43\": {\"C\": 1}, \"44\": {\"C\": 1}, \"45\": {\"C\": 1}, \"46\": {\"C\": 1}, \"47\": {\"C\": 1}, \"48\": {\"C\": 1}, \"49\": {\"C\": 1}, \"50\": {\"C\": 1}, \"51\": {\"C\": 1}, \"52\": {\"C\": 1}, \"53\": {\"O\": 1}, \"54\": {\"O\": 1}, \"55\": {\"O\": 1}, \"56\": {\"O\": 1}, \"57\": {\"O\": 1}, \"58\": {\"O\": 1}, \"59\": {\"O\": 1}, \"60\": {\"O\": 1}, \"61\": {\"O\": 1}, \"62\": {\"O\": 1}, \"63\": {\"O\": 1}, \"64\": {\"O\": 1}, \"65\": {\"O\": 1}, \"66\": {\"O\": 1}}" energy=-437.49237060546875 free_energy=-437.49237060546875 stress="-0.024066980928182602 -0.0006092540570534766 -0.00010819268936756998 -0.0006092540570534766 -0.012895542196929455 -0.0006715908530168235 -0.00010819268936756998 -0.0006715908530168235 -0.0070855338126420975" pbc="T T T"
Zn       1.37295920       0.84383247       1.15766527        0      -0.62996197      -0.05097137      -0.19726172
Zn      -1.35023238       3.21699710      14.89552429        1      -0.44095305       0.15622447       0.41962063
Zn       4.00111308       6.29587234       1.29711561        2      -0.26821274       0.45668799       0.67553931
Zn       1.29439580      -2.23967910      14.76944634        3      -0.16909400      -0.15575153       0.34410122
Zn      -2.72657082       0.23215436      16.10840526        4       0.37037805      -0.02476089       0.06587572
P        2.67791152       3.54936691       2.00819983        5      -3.41687822       0.42363310      -0.01910233
P       -0.05283564       0.50582911      14.04679335        6      -2.08902550       0.19137225       1.26867533
H        1.60410185       5.97446795       1.30652738        7       0.01726387       0.23296517      -0.09130494
H       -1.09024788      -1.91969118      14.77551419        8       0.11088981      -0.40379533       0.22834587
H        4.29630894       1.71657881       0.98002763        9       0.35988891      -0.15064855      -0.35391629
H        1.58485248       2.34151753      15.17540484       10      -0.57506710       0.01007338      -0.75835967
H        0.84267960       4.83688105       3.87615991       11      -0.07601056       0.07206985      -0.04517884
H       -1.84001187      -0.77468457      12.14621632       12      -0.46556881      -0.27884650       0.35464448
H        0.83630633       5.01819011       6.30181439       13      -0.53746170       0.38039175       0.17338705
H        3.51510999      -0.95227685       9.72012188       14       0.00524600      -0.06691877       0.15462567
H       -0.87579687       2.80085835       6.45376329       15       0.36042050      -0.21831019       0.21889967
H        1.81993667       1.25653613       9.57196533       16       0.37953386       0.20278417      -0.25044280
H        4.53495762       2.71305000       4.10226932       17       1.77994204      -1.11477625      -1.25423265
H        1.83284148       1.38843171      12.06973788       18       0.45995447       0.17977972      -0.06222430
H        0.82619999       5.13546952       8.23126931       19      -0.14509931       0.18515524       0.02547577
H        3.50845827      -1.07273026       7.78474242       20      -0.08623654      -0.07659902       0.00954679
H        0.81478859       5.24686824      10.68024380       21      -0.13683777       0.07699978      -0.15948549
H        3.48834269      -1.18256950       5.37016524       22      -0.29288438      -0.21793664      -0.12227196
H       -1.02410950       2.91065764      10.83057971       23       0.75506830      -0.45767185       0.38309872
H        1.68681095       1.15014051       5.19598928       24       0.98493111       0.56094116      -0.71469474
H       -0.91933503       2.89757111       8.44793234       25       0.79247808      -0.68475795      -0.80516815
H        1.75587196       1.22064677       7.67461482       26       0.82821333       0.44574052       0.19969864
C        2.64894682       3.73268253       3.79466351       27       1.90432453      -0.84392750      -0.99850154
C       -0.04871061       0.32638072      12.27741323       28       2.47629833       1.34073150      -0.27689326
C        1.66522144       4.40422986       4.43645372       29      -1.66870332       0.79732662       1.45632482
C       -1.01721615      -0.34287107      11.61283181       30      -1.37573814      -0.79089642      -1.31500340
C        1.64620251       4.49235314       5.84231806       31       0.30589563       0.07045265      -0.56027079
C       -1.01108221      -0.43632933      10.21307365       32      -0.83863479      -0.32781214       0.52508605
C        2.66253540       3.93828024       6.63152809       33      -0.48965216      -0.06785575      -1.32016385
C       -0.02662028       0.16302703       9.46196946       34      -0.03292207      -0.34932417      -2.07913971
C        3.66193081       3.26205753       5.91565977       35       0.77300113      -0.11690233      -0.09303002
C        1.01303085       0.79745654      10.11182547       36       0.86448252       0.59481400       1.93052995
C        3.72370564       3.17870732       4.52567254       37      -2.47160912       1.23275781       1.72311544
C        1.06107489       0.88099816      11.51644219       38      -1.82869124      -0.63598263      -0.02898390
C        2.63426321       4.01476338       8.08120836       39      -0.14791764      -0.31258821      -0.04107118
C       -0.04366927       0.08372667       7.94435455       40       0.90245712       0.47612715       0.38284147
C        1.63122906       4.65574520       8.77611119       41      -0.89497620       0.71518761       0.16006577
C       -1.03394931      -0.58467527       7.24363793       42      -0.53034419      -0.37803549       0.39527541
C        1.61501448       4.71295072      10.16744150       43      -2.57749152       1.66025162      -1.03312254
C        4.29613379      -0.65545361       5.85437774       44      -1.68004942      -0.88554120       0.98881876
C        2.52237629       4.10703384      10.92855902       45       3.34221411      -2.07339811       0.96965057
C       -0.14168277      -0.02359297       5.10200822       46       3.45191336       1.66288066      -0.20545572
C        3.58575169       3.40238914      10.24715524       47      -1.86113036       0.79977751       0.07688592
C        0.95818787       0.65288445       5.77026380       48      -2.06402016      -0.86531413       0.62576634
C        3.57779792       3.36738347       8.85897253       49       1.06708658      -0.07141525       1.63008773
C        0.99187776       0.69030219       7.16098094       50      -1.15592968      -0.48626482      -0.25842461
C        2.50244329       4.12807652      12.40441310       51      -0.44259763       0.32528007       2.78396416
C       -0.13723773      -0.06427879       3.61182420       52      -1.06942189      -0.56229693       2.27969289
O        3.85434079       4.28537785       1.44191340       53       1.41226268       0.67960864      -0.56463563
O        1.16504733      -0.22948548      14.58028548       54       0.90287185      -0.44614762       0.31689516
O        1.29939873       4.17778343       1.47868491       55       1.42018175      -0.63300312       0.52985835
O       -1.38387995      -0.12248937      14.66119289       56       1.24481082       0.49248552      -1.00813544
O        2.77448628       2.05186428       1.73646486       57       0.58950329      -0.50703180      -0.16716105
O        0.08437843       2.00489297      14.42834217       58       0.34328008      -0.33135059      -0.35682064
O        1.77012085      -2.72849953      13.02701126       59       1.05405653      -1.18269825      -2.05703759
O        4.46432766       6.78667105       3.15176782       60      -0.41507298      -0.76992965      -1.68797886
O       -2.17366353       3.25750712      13.09334667       61      -0.59681320       0.76592153      -1.65507650
O        0.52619909       0.79842599       3.02532902       62       1.08923495       1.07797480      -1.62530923
O        2.06831144       6.77557882       0.94097682       63       0.28176397      -0.36487168       0.07784949
O       -0.62056684      -2.71984556      15.15233953       64       0.04109154       0.52369916      -0.12786268
O        5.01879530       1.62809364       0.27639207       65      -0.15706313       0.36069563       0.76545233
O        2.32138111       2.43232121      15.81174135       66       0.95713067      -0.24645811       0.15402675
67
Lattice="5.34906208 0.0 0.0 -0.0021394207671076777 7.767820295379312 0.0 -2.687569850027315 -3.5940029843819183 16.132822474434803" Properties=species:S:1:pos:R:3:spacegroup_kinds:I:1:forces:R:3 spacegroup="P 1" unit_cell=conventional occupancy="_JSON {\"0\": {\"Zn\": 1}, \"1\": {\"Zn\": 1}, \"2\": {\"Zn\": 1}, \"3\": {\"Zn\": 1}, \"4\": {\"Zn\": 1}, \"5\": {\"P\": 1}, \"6\": {\"P\": 1}, \"7\": {\"H\": 1}, \"8\": {\"H\": 1}, \"9\": {\"H\": 1}, \"10\": {\"H\": 1}, \"11\": {\"H\": 1}, \"12\": {\"H\": 1}, \"13\": {\"H\": 1}, \"14\": {\"H\": 1}, \"15\": {\"H\": 1}, \"16\": {\"H\": 1}, \"17\": {\"H\": 1}, \"18\": {\"H\": 1}, \"19\": {\"H\": 1}, \"20\": {\"H\": 1}, \"21\": {\"H\": 1}, \"22\": {\"H\": 1}, \"23\": {\"H\": 1}, \"24\": {\"H\": 1}, \"25\": {\"H\": 1}, \"26\": {\"H\": 1}, \"27\": {\"C\": 1}, \"28\": {\"C\": 1}, \"29\": {\"C\": 1}, \"30\": {\"C\": 1}, \"31\": {\"C\": 1}, \"32\": {\"C\": 1}, \"33\": {\"C\": 1}, \"34\": {\"C\": 1}, \"35\": {\"C\": 1}, \"36\": {\"C\": 1}, \"37\": {\"C\": 1}, \"38\": {\"C\": 1}, \"39\": {\"C\": 1}, \"40\": {\"C\": 1}, \"41\": {\"C\": 1}, \"42\": {\"C\": 1}, \"43\": {\"C\": 1}, \"44\": {\"C\": 1}, \"45\": {\"C\": 1}, \"46\": {\"C\": 1}, \"47\": {\"C\": 1}, \"48\": {\"C\": 1}, \"49\": {\"C\": 1}, \"50\": {\"C\": 1}, \"51\": {\"C\": 1}, \"52\": {\"C\": 1}, \"53\": {\"O\": 1}, \"54\": {\"O\": 1}, \"55\": {\"O\": 1}, \"56\": {\"O\": 1}, \"57\": {\"O\": 1}, \"58\": {\"O\": 1}, \"59\": {\"O\": 1}, \"60\": {\"O\": 1}, \"61\": {\"O\": 1}, \"62\": {\"O\": 1}, \"63\": {\"O\": 1}, \"64\": {\"O\": 1}, \"65\": {\"O\": 1}, \"66\": {\"O\": 1}}" energy=-435.2351989746094 free_energy=-435.2351989746094 stress="-0.042878132313489914 0.0015959831653162837 0.0034035302232950926 0.0015959831653162837 -0.021830661222338676 -0.0002931641647592187 0.0034035302232950926 -0.0002931641647592187 -0.013223211281001568" pbc="T T T"
Zn       1.35804994       0.81807088       1.15483257        0      -0.63272464      -0.06773900      -0.44675747
Zn      -1.36641008       3.18915038      14.87391107        1      -0.49105942       0.24955328       0.70104504
Zn       3.98938283       6.26594452       1.27562090        2      -0.53723675       0.66243958       1.06776023
Zn       1.26587656      -2.26956958      14.74725385        3      -0.30622509      -0.06365581       0.89834213
Zn      -2.75618212       0.21861891      16.10656598        4       0.51719213      -0.11821364       0.09022589
P        2.67941878       3.51941444       1.98804240        5      -4.67617416       0.46208018       0.70263982
P       -0.06189776       0.48167968      14.03761164        6      -3.19041443       0.18503356       1.72272575
H        1.57613773       5.94585991       1.32193314        7       0.20920232       0.51816350      -0.30257040
H       -1.11433905      -1.94918587      14.74984663        8       0.17852674      -0.56646401       0.43594867
H        4.30486578       1.68691535       0.98086259        9       0.22614920      -0.18289286      -0.45401487
H        1.56335447       2.31509125      15.19997554       10      -0.87021875      -0.00679477      -1.08610094
H        0.87211281       4.81149967       3.85283293       11      -0.49049979       0.44856110      -0.07127368
H       -1.81054979      -0.79619948      12.11639702       12      -0.90187752      -0.52157390       0.56595093
H        0.86466696       4.98833585       6.27292620       13      -0.81570667       0.55963099       0.52769578
H        3.54400531      -0.95385424       9.70234575       14      -0.13769202      -0.26186255       0.32050124
H       -0.89927689       2.79446232       6.42519204       15       0.67613465      -0.43785971       0.43799645
H        1.79592450       1.22964727       9.58861876       16       1.42797327       0.89187831      -1.10473084
H        4.53078451       2.74244763       4.12974323       17       4.86653137      -2.78837156      -2.85436201
H        1.80733928       1.37294686      12.09579699       18       0.79297304       0.30051073      -0.18955055
H        0.85428920       5.10598482       8.20823373       19      -0.85095638       0.73188424      -0.22064430
H        3.53497457      -1.09123211       7.75530448       20       0.03369002       0.06399954      -0.06158939
H        0.84331293       5.21744931      10.65398353       21      -0.34626901       0.25562370      -0.02528853
H        3.51807545      -1.19869512       5.35221364       22      -0.69123900      -0.54473436      -0.19685909
H       -1.05331004       2.88309955      10.80059523       23       0.82931280      -0.51884425       0.35303950
H        1.65864126       1.12105742       5.17539575       24       1.65398574       0.99038601      -1.28241634
H       -0.93461028       2.89697988       8.47613780       25       1.30578458      -1.00987482      -1.25252151
H        1.72675709       1.19290726       7.69671834       26       1.92190301       1.17313290       0.65243870
C        2.62538611       3.73158733       3.78410109       27       4.29901171      -2.04225397      -1.67088151
C       -0.06255263       0.31184133      12.29780903       28       3.20016360       1.35300303      -1.63678813
C        1.69484381       4.42660145       4.42324016       29      -2.24935699       0.70165205       2.34200072
C       -0.99194871      -0.37208576      11.59574351       30      -1.32691169      -0.59089100      -0.32842216
C        1.67524007       4.46263709       5.84109576       31       0.02396081       0.58583188      -1.45047629
C       -0.98344473      -0.46504241      10.22109737       32      -1.32071817      -0.62670088      -0.61658299
C        2.69151889       3.91139587       6.60749053       33      -1.99023807       0.64134407      -0.50745457
C       -0.04226568       0.13424427       9.43842801       34       0.92674267       0.56727719      -1.57419717
C        3.63974440       3.24380864       5.89362197       35       2.46953726      -0.95350254      -1.25153053
C        0.98894844       0.81166701      10.08762769       36      -0.03820084      -0.50887799       3.13557792
C        3.74685649       3.15828972       4.49592080       37      -6.99344921       3.51309872       3.50048065
C        1.08040238       0.85310600      11.50385380       38      -3.00877380      -0.66294944       0.18197915
C        2.63305481       3.98675078       8.05161693       39      -0.88193482       0.54854739       0.11728400
C       -0.06251153       0.08000298       7.93338340       40       2.32132578       1.28562808       0.36292782
C        1.64304647       4.66936432       8.76395545       41       0.30760288      -0.47236496      -0.16405623
C       -1.00982612      -0.57024720       7.22468643       42      -1.93367147      -1.49573612      -0.18593132
C        1.64265442       4.68453082      10.15225480       43      -4.05205297       2.80568027      -1.86472607
C        4.31465847      -0.67255033       5.82778147       44      -2.54342818      -1.27707505       2.09239244
C        2.50385543       4.08248656      10.92464801       45       4.59955263      -2.84525156       0.98132575
C       -0.17059033      -0.04480509       5.07309525       46       5.28520584       2.48920393      -0.80701721
C        3.55798267       3.37530017      10.21762703       47      -1.81793833       0.82742691       0.64025116
C        0.94341399       0.64095938       5.74103287       48      -2.44084501      -0.99535966       2.13377357
C        3.55026196       3.35519034       8.83154848       49       1.42535102      -0.45452684       2.52705216
C        1.00316406       0.70403220       7.15144434       50      -2.98263645      -1.68623435      -1.57855296
C        2.48285245       4.12301202      12.37528952       51      -0.22453055      -0.53814018       5.12798834
C       -0.12014257      -0.09299091       3.58195418       52      -3.12322021      -2.01255369       2.80629134
O        3.82454253       4.25543556       1.41341390       53       2.02449608       0.95812041      -0.91091156
O        1.13578127      -0.25946892      14.55622430       54       1.42786360      -0.70280981       0.58342421
O        1.26980004       4.14790782       1.49694279       55       1.63840199      -0.72088313       0.41139901
O       -1.41374679      -0.15233355      14.69013231       56       1.81455255       0.66959774      -1.47201252
O        2.74515650       2.02193553       1.75655367       57       0.74048686      -0.67172182      -0.22570553
O        0.05532822       1.97540175      14.42077207       58       0.54340386      -0.23966539      -0.30306047
O        1.74480730      -2.75807882      13.04847939       59       1.42658925      -1.43921924      -3.39523220
O        4.43434451       6.75951833       3.12896750       60       0.44546771      -0.08479270      -1.42880499
O       -2.20239425       3.22857742      13.11932804       61      -1.18233323       1.54826045      -3.07184982
O        0.49934094       0.78212780       3.01189407       62       1.90232384       1.89471459      -2.37394714
O        2.03919780       6.74787488       0.92756726       63       0.14518572      -0.67880780       0.28907633
O       -0.65013669      -2.74955764      15.15201654       64       0.03959745       0.77427679      -0.29345053
O        4.99364726       1.59811738       0.24897896       65      -0.04461320       0.38243607       1.00254631
O        2.29313382       2.40246636      15.82995612       66       1.44696164      -0.24977654      -0.05181149
67