116
Lattice="7.98672924 0.0 0.0 3.2933614045094676e-05 8.819204939938508 0.0 -0.00011481649437539901 -4.169346439219978 17.310694418748902" Properties=species:S:1:pos:R:3:spacegroup_kinds:I:1:forces:R:3 spacegroup="P 1" unit_cell=conventional occupancy="_JSON {\"0\": {\"Cu\": 1}, \"1\": {\"Cu\": 1}, \"2\": {\"Cu\": 1}, \"3\": {\"Cu\": 1}, \"4\": {\"H\": 1}, \"5\": {\"H\": 1}, \"6\": {\"H\": 1}, \"7\": {\"H\": 1}, \"8\": {\"H\": 1}, \"9\": {\"H\": 1}, \"10\": {\"H\": 1}, \"11\": {\"H\": 1}, \"12\": {\"H\": 1}, \"13\": {\"H\": 1}, \"14\": {\"H\": 1}, \"15\": {\"H\": 1}, \"16\": {\"H\": 1}, \"17\": {\"H\": 1}, \"18\": {\"H\": 1}, \"19\": {\"H\": 1}, \"20\": {\"H\": 1}, \"21\": {\"H\": 1}, \"22\": {\"H\": 1}, \"23\": {\"H\": 1}, \"24\": {\"H\": 1}, \"25\": {\"H\": 1}, \"26\": {\"H\": 1}, \"27\": {\"H\": 1}, \"28\": {\"H\": 1}, \"29\": {\"H\": 1}, \"30\": {\"H\": 1}, \"31\": {\"H\": 1}, \"32\": {\"H\": 1}, \"33\": {\"H\": 1}, \"34\": {\"H\": 1}, \"35\": {\"H\": 1}, \"36\": {\"C\": 1}, \"37\": {\"C\": 1}, \"38\": {\"C\": 1}, \"39\": {\"C\": 1}, \"40\": {\"C\": 1}, \"41\": {\"C\": 1}, \"42\": {\"C\": 1}, \"43\": {\"C\": 1}, \"44\": {\"C\": 1}, \"45\": {\"C\": 1}, \"46\": {\"C\": 1}, \"47\": {\"C\": 1}, \"48\": {\"C\": 1}, \"49\": {\"C\": 1}, \"50\": {\"C\": 1}, \"51\": {\"C\": 1}, \"52\": {\"C\": 1}, \"53\": {\"C\": 1}, \"54\": {\"C\": 1}, \"55\": {\"C\": 1}, \"56\": {\"C\": 1}, \"57\": {\"C\": 1}, \"58\": {\"C\": 1}, \"59\": {\"C\": 1}, \"60\": {\"C\": 1}, \"61\": {\"C\": 1}, \"62\": {\"C\": 1}, \"63\": {\"C\": 1}, \"64\": {\"C\": 1}, \"65\": {\"C\": 1}, \"66\": {\"C\": 1}, \"67\": {\"C\": 1}, \"68\": {\"C\": 1}, \"69\": {\"C\": 1}, \"70\": {\"C\": 1}, \"71\": {\"C\": 1}, \"72\": {\"C\": 1}, \"73\": {\"C\": 1}, \"74\": {\"C\": 1}, \"75\": {\"C\": 1}, \"76\": {\"C\": 1}, \"77\": {\"C\": 1}, \"78\": {\"C\": 1}, \"79\": {\"C\": 1}, \"80\": {\"C\": 1}, \"81\": {\"C\": 1}, \"82\": {\"C\": 1}, \"83\": {\"C\": 1}, \"84\": {\"C\": 1}, \"85\": {\"C\": 1}, \"86\": {\"C\": 1}, \"87\": {\"C\": 1}, \"88\": {\"C\": 1}, \"89\": {\"C\": 1}, \"90\": {\"C\": 1}, \"91\": {\"C\": 1}, \"92\": {\"C\": 1}, \"93\": {\"C\": 1}, \"94\": {\"C\": 1}, \"95\": {\"C\": 1}, \"96\": {\"N\": 1}, \"97\": {\"N\": 1}, \"98\": {\"N\": 1}, \"99\": {\"N\": 1}, \"100\": {\"N\": 1}, \"101\": {\"N\": 1}, \"102\": {\"N\": 1}, \"103\": {\"N\": 1}, \"104\": {\"N\": 1}, \"105\": {\"N\": 1}, \"106\": {\"N\": 1}, \"107\": {\"N\": 1}, \"108\": {\"N\": 1}, \"109\": {\"N\": 1}, \"110\": {\"N\": 1}, \"111\": {\"N\": 1}, \"112\": {\"N\": 1}, \"113\": {\"N\": 1}, \"114\": {\"N\": 1}, \"115\": {\"N\": 1}}" energy=-842.673828125 free_energy=-842.673828125 stress="-2.9152592105674557e-05 0.00011210668162675574 -6.574054714292288e-05 0.00011210668162675574 0.001378823653794825 -0.0004954343312419951 -6.574054714292288e-05 -0.0004954343312419951 0.0013929393608123064" pbc="T T T"
Cu       7.75573376      -1.96678740      14.02570516        0      -0.06955773      -0.41402110       0.39684910
Cu       3.75950149       0.12259028      11.93969743        1      -0.03934479       0.40461937      -0.38905022
Cu       0.23354321       6.61705853       3.28429116        2       0.04215378       0.40609485      -0.38930205
Cu       4.22725842       4.52744959       5.37052963        3       0.03717208      -0.39835989       0.38659936
H        7.28026949      -0.02997757      16.50508544        4       0.01195792       0.01578636       0.05290509
H        3.28630231      -1.81242636       9.45978815        5       0.00786345       0.00739394      -0.06670379
H        0.70726318       4.68096992       0.80303431        6      -0.02886474      -0.03734909      -0.03938757
H        4.70087231       6.46340599       7.85052189        7      -0.02671947       0.03682780       0.04447167
H        6.42776742       3.85762184       1.53396237        8      -0.00940726      -0.01769811      -0.05671597
H        2.43507174      -1.53222849       7.11916723        9      -0.00597264       0.00352141       0.05892512
H        1.55820186       0.79277164      15.77540918       10       0.01020895      -0.04038242       0.01383764
H        5.55081389       6.18215261      10.18920858       11       0.00978937       0.02554473      -0.02963528
H        5.56002819       1.59773559       2.23219834       12       0.01469871      -0.01557671      -0.08117475
H        1.56677468       0.72924212       6.42181484       13       0.00908012       0.00481364       0.05973388
H        2.42384144       3.05323736      15.07683865       14      -0.01121999       0.01267589       0.07629520
H        6.41803683       3.92199393      10.88694933       15      -0.00293497      -0.01032083      -0.04943258
H        3.64957819       6.69586644       2.87236754       16       0.03741025       0.10133601      -0.09983017
H        7.64165242       4.44884595       5.78273437       17       0.05526237      -0.10858044       0.10404612
H        4.33649044      -2.04448494      14.43793171       18      -0.04765374      -0.10894151       0.10494861
H        0.34228260       0.20127327      11.52708520       19      -0.02538815       0.10225832      -0.08149759
H        3.97821711       4.79937972       1.25391672       20       0.00894318      -0.02078477      -0.11823192
H        7.97107191       6.34386415       7.39971085       21      -0.01458723       0.04815911       0.11805249
H        4.00701013      -0.15048547      16.05479780       22       0.00909500       0.03751969       0.11884619
H        0.01307421      -1.69446078       9.90979990       23       0.01782769      -0.07960742      -0.12088156
H        6.09308245       1.19850512      14.94223765       24       0.00055119       0.06466649       0.09523939
H        2.10169310       5.77601303      11.02342311       25      -0.00553615      -0.06837508      -0.11031812
H        1.89343598       3.45142961       2.36770465       26      -0.00087068      -0.07819688      -0.10961256
H        5.88604243      -1.12567437       6.28676277       27      -0.00519895       0.07472993       0.10069671
H        7.27503160       1.76766763      12.80305024       28       0.03519734       0.09203255      -0.08505677
H        3.28210428       5.20713818      13.16347628       29       0.03165245      -0.10773706       0.05143739
H        0.71017119       2.88258162       4.50760011       30      -0.03087204      -0.08984709       0.07296185
H        4.70307595      -0.55721580       4.14767082       31      -0.03791939       0.07416739      -0.10024574
H        0.10714720       4.09160900      12.44307799       32      -0.00294939      -0.06276989      -0.05019419
H        4.09966566       2.88341705      13.52054301       33       0.05405491       0.02195846       0.14222036
H        7.87864894       0.55833209       4.86581668       34      -0.01203689       0.05698575       0.07649173
H        3.88468906       1.76812634       3.78709807       35      -0.00217257      -0.06004011      -0.05510950
C        6.96762199      -1.00563258      16.86905454       36       0.03328574       0.02009234       0.07151832
C        2.97438396      -0.83609374       9.09443196       37       0.06418554      -0.10750818       0.00093623
C        1.01697642       5.65676617       0.43933658       38      -0.00923804      -0.02305710      -0.07342844
C        5.01078122       5.48797260       8.21526892       39      -0.03072678       0.02150464       0.00600438
C        6.46143580       3.00601232       0.85325698       40      -0.01448989       0.10629617      -0.09096016
C        2.46858951      -0.68124722       7.80015285       41      -0.02162312      -0.06720079       0.08317590
C        1.52417797       1.64279205      16.45444760       42      -0.01129377      -0.01569220       0.19578390
C        5.51713512       5.33208090       9.50904454       43       0.02107409       0.04125167      -0.08627251
C        5.98780125       1.76288008       1.24409432       44       0.07439609       0.03699826       0.00063419
C        1.99470759       0.56165388       7.40882500       45       0.07124457       0.02922437       0.03153452
C        1.99673181       2.88676222      16.06494611       46      -0.05841794      -0.04087510      -0.04128271
C        5.99030765       4.08895524       9.90019212       47      -0.08004893      -0.01636548      -0.04268064
C        6.04420812       0.69694224       0.33396952       48       0.01997338      -0.00636280       0.00244782
C        2.05103410       1.62852614       8.31898795       49       0.04677405      -0.03995893       0.05369361
C        1.94106387       3.95229389      16.97415168       50      -0.04656336       0.04031884       0.08606884
C        5.93326285       3.02162200       8.99032640       51      -0.00998153      -0.00107060       0.00039974
C        5.47397925       8.21177113       0.61379140       52      -0.01653960       0.02175215      -0.04932547
C        1.48087269       2.93390910       8.04086184       53      -0.02100439      -0.10389507       0.00059487
C        2.51098707      -3.56121378      16.69602199       54       0.04042914      -0.05296820       0.01350429
C        6.50420487       1.71622653       9.26918409       55       0.01785640       0.10030693      -0.02192239
C        4.23756727       6.84176594       1.96526757       56       0.17292260      -0.21064985      -0.15162241
C        0.24622159       4.30202184       6.68826505       57       0.07259074       0.25708076       0.11838189
C        3.74722771      -2.19143179      15.34451402       58      -0.11826655       0.18757796       0.10493279
C        7.74176395       0.34780504      10.62031032       59      -0.16976014      -0.24843942      -0.17626125
C        4.41477372       5.78248310       1.06229239       60      -0.11015423       0.02393839       0.21013959
C        0.41793755       5.36099601       7.59280992       61      -0.02438697      -0.07268363      -0.21342349
C        3.57371079      -1.13393804      16.24815662       62       0.06587243       0.00187159      -0.22401911
C        7.56615843      -0.71274222       9.71638161       63       0.04508688       0.17235282       0.23398830
C        5.61634123       2.98342757      16.98776140       64      -0.00809866      -0.03855025      -0.12264720
C        1.62393832       3.99144896       8.97786571       65      -0.05276179       0.03023183       0.02983424
C        2.37034343       1.66665191       0.32328906       66       0.01088175      -0.01101973       0.02795795
C        6.36343741       0.65876110       8.33092401       67      -0.00850029       0.03100500      -0.07045212
C        6.30554035       3.20444303      15.72814734       68       0.00630865       0.03489836       0.02351478
C        2.31206695       3.76905594      10.23534295       69       0.03519515       0.02398536       0.03675485
C        1.68031142       1.44265312       1.58008750       70      -0.01058965       0.12923029       0.05137825
C        5.67405308       0.88055300       7.07206810       71      -0.03895002       0.04113279       0.02175969
C        6.47881822       2.20039766      14.76056524       72       0.00585164       0.10252874       0.03065122
C        2.48630045       4.77314574      11.20190973       73       0.05111214      -0.08482516       0.08139580
C        1.50695839       2.44908257       2.54659611       74      -0.04520987      -0.13619170       0.06682729
C        5.49910361      -0.12356174       6.10689203       75      -0.02437987       0.07105274      -0.07838799
C        7.13244268       2.51385113      13.58028140       76       0.01086475       0.08211961      -0.08054934
C        3.14130284       4.46110550      12.38436867       77      -0.00787546      -0.11522297       0.04759040
C        0.85265563       2.13668639       3.72982750       78       0.02539326      -0.06872270      -0.00892957
C        4.84524131       0.18873835       4.92412361       79       0.00133483       0.14013064      -0.00006185
C        7.58258314       3.82147801      13.36720656       80       0.11196452      -0.02675220      -0.15483707
C        3.59142426       3.15258783      12.59869215       81       0.00703724       0.08548349      -0.01343113
C        0.40218323       0.82979354       3.94269553       82      -0.07745579      -0.02480515       0.08812740
C        4.39471343       1.49718208       4.71136367       83      -0.07906345      -0.07233443      -0.14008507
C        6.79738983       4.50152807      15.43531264       84      -0.01958622       0.21142147      -0.00613552
C        2.80466910       2.47396812      10.53050098       85      -0.05938144      -0.29586411      -0.10842732
C        1.18684094       0.14878024       1.87454566       86       0.05713508      -0.29073149      -0.05674815
C        5.17903985       2.17679788       6.77875164       87       0.10002214       0.21034153       0.09417507
C        6.64960881      -3.24583198      16.38638947       88       0.00446638      -0.05329669      -0.29195487
C        2.65684936       1.39901626       9.57932573       89      -0.05579250       0.24770516       0.24273333
C        1.33575337       7.89497118       0.92365576       90       0.01040136       0.09407464       0.25584406
C        5.32901073       3.24860295       7.73127236       91      -0.01804987      -0.07219270      -0.31111467
C        1.34399189      -1.14095636      13.45310731       92       0.10115838       0.11592720      -0.10939751
C        5.33778739      -0.70362864      12.51162793       93       0.03131685      -0.07465477       0.07420754
C        6.64208815       5.79100968       3.85429586       94      -0.10867944      -0.12451950       0.12115764
C        2.64920155       5.35414126       4.79741193       95      -0.01842946       0.06484868      -0.06615414
N        7.08822982      -2.01771406      16.00542933       96      -0.13298452      -0.02457469       0.14886430
N        3.09468561       0.17479502       9.96125881       97      -0.12635015      -0.07770044      -0.20625141
N        0.89692669       6.66813261       1.30554334       98       0.14450629      -0.01849467      -0.21905327
N        4.89175006       4.47656487       7.34937091       99       0.13270846      -0.00332401       0.19773161
N        7.41483846       4.80330972      14.26037709      100      -0.17890984      -0.22257391       0.11875558
N        3.42041878       2.17141243      11.70265629      101      -0.11142641       0.24915004       0.02571978
N        0.57208353      -0.15341585       3.04862044      102       0.12648523       0.26817197      -0.02625839
N        4.56400107       2.47860602       5.60537571      103       0.13228995      -0.21623406       0.05451646
N        4.76454555       8.04558672       1.74972182      104       0.02053455       0.02264269       0.01539277
N        0.77042655       3.09848149       6.90350205      105       0.08709926      -0.04128627       0.04482070
N        3.22033302      -3.39510907      15.55883354      106      -0.05582914      -0.03077111       0.01984985
N        7.21362561       1.55140854      10.40627424      107      -0.03840668      -0.00507963      -0.02625165
N        5.08869226       1.76349967      17.23255573      108       0.04570716       0.10648324       0.02094501
N        1.09531712       5.21024105       8.73080384      109       0.02863069      -0.05756277       0.02804543
N        2.89693223       2.88627841       0.07519421      110      -0.05171689      -0.10005829       0.06290577
N        6.88947526      -0.55886774       8.57788928      111       0.00624190      -0.02196301      -0.00487226
N        2.23421515      -0.55659256      12.95308145      112       0.11928929       0.16306655      -0.04938807
N        6.22722681      -1.28876787      13.01022135      113       0.17722040      -0.19804198       0.08437386
N        5.75297652       5.20573516       4.35603875      114      -0.09853838      -0.14683232       0.03518602
N        1.75975823       5.93852084       4.29823348      115      -0.18109968       0.20220423      -0.08434490
116
Lattice="7.98672924 0.0 0.0 3.2933614045094676e-05 8.819204939938508 0.0 -0.00011481649437539901 -4.169346439219978 17.310694418748902" Properties=species:S:1:pos:R:3:spacegroup_kinds:I:1:forces:R:3 spacegroup="P 1" unit_cell=conventional occupancy="_JSON {\"0\": {\"Cu\": 1}, \"1\": {\"Cu\": 1}, \"2\": {\"Cu\": 1}, \"3\": {\"Cu\": 1}, \"4\": {\"H\": 1}, \"5\": {\"H\": 1}, \"6\": {\"H\": 1}, \"7\": {\"H\": 1}, \"8\": {\"H\": 1}, \"9\": {\"H\": 1}, \"10\": {\"H\": 1}, \"11\": {\"H\": 1}, \"12\": {\"H\": 1}, \"13\": {\"H\": 1}, \"14\": {\"H\": 1}, \"15\": {\"H\": 1}, \"16\": {\"H\": 1}, \"17\": {\"H\": 1}, \"18\": {\"H\": 1}, \"19\": {\"H\": 1}, \"20\": {\"H\": 1}, \"21\": {\"H\": 1}, \"22\": {\"H\": 1}, \"23\": {\"H\": 1}, \"24\": {\"H\": 1}, \"25\": {\"H\": 1}, \"26\": {\"H\": 1}, \"27\": {\"H\": 1}, \"28\": {\"H\": 1}, \"29\": {\"H\": 1}, \"30\": {\"H\": 1}, \"31\": {\"H\": 1}, \"32\": {\"H\": 1}, \"33\": {\"H\": 1}, \"34\": {\"H\": 1}, \"35\": {\"H\": 1}, \"36\": {\"C\": 1}, \"37\": {\"C\": 1}, \"38\": {\"C\": 1}, \"39\": {\"C\": 1}, \"40\": {\"C\": 1}, \"41\": {\"C\": 1}, \"42\": {\"C\": 1}, \"43\": {\"C\": 1}, \"44\": {\"C\": 1}, \"45\": {\"C\": 1}, \"46\": {\"C\": 1}, \"47\": {\"C\": 1}, \"48\": {\"C\": 1}, \"49\": {\"C\": 1}, \"50\": {\"C\": 1}, \"51\": {\"C\": 1}, \"52\": {\"C\": 1}, \"53\": {\"C\": 1}, \"54\": {\"C\": 1}, \"55\": {\"C\": 1}, \"56\": {\"C\": 1}, \"57\": {\"C\": 1}, \"58\": {\"C\": 1}, \"59\": {\"C\": 1}, \"60\": {\"C\": 1}, \"61\": {\"C\": 1}, \"62\": {\"C\": 1}, \"63\": {\"C\": 1}, \"64\": {\"C\": 1}, \"65\": {\"C\": 1}, \"66\": {\"C\": 1}, \"67\": {\"C\": 1}, \"68\": {\"C\": 1}, \"69\": {\"C\": 1}, \"70\": {\"C\": 1}, \"71\": {\"C\": 1}, \"72\": {\"C\": 1}, \"73\": {\"C\": 1}, \"74\": {\"C\": 1}, \"75\": {\"C\": 1}, \"76\": {\"C\": 1}, \"77\": {\"C\": 1}, \"78\": {\"C\": 1}, \"79\": {\"C\": 1}, \"80\": {\"C\": 1}, \"81\": {\"C\": 1}, \"82\": {\"C\": 1}, \"83\": {\"C\": 1}, \"84\": {\"C\": 1}, \"85\": {\"C\": 1}, \"86\": {\"C\": 1}, \"87\": {\"C\": 1}, \"88\": {\"C\": 1}, \"89\": {\"C\": 1}, \"90\": {\"C\": 1}, \"91\": {\"C\": 1}, \"92\": {\"C\": 1}, \"93\": {\"C\": 1}, \"94\": {\"C\": 1}, \"95\": {\"C\": 1}, \"96\": {\"N\": 1}, \"97\": {\"N\": 1}, \"98\": {\"N\": 1}, \"99\": {\"N\": 1}, \"100\": {\"N\": 1}, \"101\": {\"N\": 1}, \"102\": {\"N\": 1}, \"103\": {\"N\": 1}, \"104\": {\"N\": 1}, \"105\": {\"N\": 1}, \"106\": {\"N\": 1}, \"107\": {\"N\": 1}, \"108\": {\"N\": 1}, \"109\": {\"N\": 1}, \"110\": {\"N\": 1}, \"111\": {\"N\": 1}, \"112\": {\"N\": 1}, \"113\": {\"N\": 1}, \"114\": {\"N\": 1}, \"115\": {\"N\": 1}}" energy=-842.7081298828125 free_energy=-842.7081298828125 stress="5.176508420845494e-05 -9.140821930486709e-05 0.0001711228396743536 -9.140821930486709e-05 0.000699007825460285 -0.0006511525716632605 0.0001711228396743536 -0.0006511525716632605 0.0006622603978030384" pbc="T T T"
Cu       7.75529811      -1.96975623      14.02820840        0      -0.03109956      -0.39317960       0.37995678
Cu       3.75885674       0.12558543      11.93671590        1      -0.00767440       0.38946629      -0.38061410
Cu       0.23140702       6.62004346       3.28144650        2       0.03603691       0.39717484      -0.38492030
Cu       4.22900866       4.52496094       5.37326256        3      -0.00013494      -0.37950775       0.36715293
H        7.27966001      -0.02939290      16.50578672        4       0.01777998       0.01055023       0.04591779
H        3.28568120      -1.81220955       9.45709110        5       0.03048614      -0.03472824      -0.03211952
H        0.70638055       4.68209528       0.80093508        6      -0.03575102      -0.04418840      -0.03265810
H        4.70029461       6.46449476       7.85074724        7      -0.02804855       0.02982771       0.03409062
H        6.42654434       3.85848666       1.53122748        8      -0.01366668       0.00290318      -0.03898548
H        2.43387933      -1.53251210       7.11990338        9      -0.00395540      -0.01606116       0.04149017
H        1.55763244       0.79257851      15.77441986       10       0.01097334      -0.01511388       0.04639465
H        5.55006026       6.18331857      10.18644976       11       0.01770934       0.03073979      -0.01882228
H        5.56019207       1.59932595       2.22987280       12      -0.00354467      -0.02310468      -0.03553280
H        1.56617951       0.72988379       6.42109306       13       0.02544238      -0.00038720       0.08912343
H        2.42226267       3.05269807      15.07803721       14       0.01379852       0.02318984       0.00395572
H        6.41689439       3.92320834      10.88458699       15       0.00835557      -0.01692938      -0.02502687
H        3.64875690       6.69823144       2.87005973       16       0.05723034       0.08897707      -0.11829597
H        7.64179876       4.44682729       5.78480131       17       0.02920842      -0.09327657       0.04850690
H        4.33489729      -2.04665510      14.43886448       18      -0.03867805      -0.09332944       0.08271763
H        0.34032240       0.20275232      11.52517813       19      -0.03015833       0.09566120      -0.09080598
H        3.97811598       4.79895727       1.25252037       20       0.00671973      -0.01171239      -0.11035918
H        7.96959779       6.34522306       7.40064134       21      -0.00138319      -0.00136817       0.11047634
H        4.00739049      -0.15067146      16.05688200       22       0.02184618       0.05425869       0.09879479
H        0.01297800      -1.69622707       9.90804738       23       0.00490924      -0.02862707      -0.11266798
H        6.09144685       1.20041651      14.94446711       24       0.01353609       0.08080034       0.07601953
H        2.10043432       5.77583288      11.02121064       25       0.03682730      -0.15106696      -0.07731137
H        1.89379967       3.44873935       2.36523512       26      -0.00632279      -0.07574496      -0.09453171
H        5.88432280      -1.12507888       6.28805992       27      -0.03276621       0.13822185       0.07227308
H        7.27652607       1.76928344      12.80130621       28       0.02547154       0.09392369      -0.07074472
H        3.28327697       5.20453211      13.16546629       29       0.01794895      -0.11955955       0.02160043
H        0.70799994       2.88031332       4.50961207       30      -0.00880751      -0.11105605       0.01555158
H        4.70222459      -0.55575640       4.14517766       31      -0.02972551       0.10757005      -0.05736275
H        0.10693385       4.09194204      12.44033834       32       0.01325336      -0.04930826      -0.05850634
H        4.10082098       2.88419461      13.52255599       33       0.01006367       0.03267870       0.05295296
H        7.87887139       0.56051508       4.86661985       34      -0.03846342       0.03011408       0.10663269
H        3.88487919       1.76739703       3.78430802       35      -0.01433435      -0.04610006      -0.06732973
C        6.96812029      -1.00527061      16.87008610       36       0.02226249       0.03128001       0.00745255
C        2.97530638      -0.83677221       9.09310298       37       0.02603758      -0.03452283       0.00297995
C        1.01607926       5.65747264       0.43692903       38      -0.02597108      -0.03015015       0.01899230
C        5.01052629       5.48895395       8.21507769       39      -0.02546132       0.03121394      -0.00965612
C        6.45977163       3.00756198       0.85090767       40      -0.01998484       0.06935256      -0.00650207
C        2.46903663      -0.68245164       7.80068500       41      -0.05644767       0.02290450       0.01850122
C        1.52393187       1.64242074      16.45574102       42       0.02464607      -0.01870015       0.02289939
C        5.51771702       5.33362000       9.50628487       43       0.04269128      -0.00462626       0.00214405
C        5.98808579       1.76374911       1.24338073       44       0.07817988       0.02776664      -0.07511400
C        1.99559329       0.56263251       7.40858140       45       0.07128230      -0.05663275       0.01961416
C        1.99479911       2.88683047      16.06345607       46      -0.09283054      -0.01848095       0.09571585
C        5.98968365       4.08893013       9.89830362       47      -0.09685440       0.05477585      -0.05549790
C        6.04304633       0.69763525       0.33272660       48       0.04579207       0.00987598      -0.02080194
C        2.05025101       1.62811201       8.31866219       49       0.06782357      -0.00733664       0.10566035
C        1.93890830       3.95313543      16.97355634       50      -0.02131442       0.00114454       0.07407255
C        5.93288713       3.02199875       8.98971306       51      -0.03101317      -0.00726138      -0.05530359
C        5.47237747       8.21323531       0.61218254       52      -0.00886618      -0.00273284      -0.06645823
C        1.48043062       2.93265002       8.04032361       53      -0.02237051      -0.05221963       0.01279075
C        2.51047130      -3.56163371      16.69508683       54       0.00738982      -0.05410695       0.04492282
C        6.50339499       1.71823507       9.26790550       55       0.04561415       0.02442622      -0.00694525
C        4.23925982       6.83928713       1.96289462       56       0.11026627      -0.03651388      -0.01355794
C        0.24773230       4.30345314       6.68772647       57       0.07174036       0.14015859       0.09954762
C        3.74455221      -2.18887339      15.34451543       58      -0.11622550       0.01386358       0.04131418
C        7.73994214       0.34652504      10.61740545       59      -0.11518312      -0.14608881      -0.02745014
C        4.41310937       5.78339602       1.06389160       60      -0.00800176      -0.06808412       0.01080411
C        0.41672184       5.36008994       7.58995937       61       0.01953863       0.03905377      -0.08439205
C        3.57410916      -1.13421930      16.24539199       62      -0.01787230       0.04794624      -0.05146827
C        7.56672648      -0.71189026       9.71850418       63      -0.03987233       0.04338530       0.00278155
C        5.61497975       2.98326102      16.98492842       64      -0.01661369       0.00930208      -0.06870776
C        1.62393721       3.99213479       8.97784946       65      -0.08184051       0.01345345      -0.02600121
C        2.37045235       1.66658944       0.32334674       66       0.01813619       0.02548895       0.00355810
C        6.36235188       0.65974298       8.32870344       67       0.02785723      -0.02102267      -0.00386348
C        6.30328973       3.20503824      15.72561955       68       0.01744453       0.10288777       0.07261614
C        2.31079538       3.76989258      10.23401079       69       0.08860819      -0.05774926       0.08923867
C        1.68043322       1.44482693       1.57919137       70      -0.04206587      -0.08972491       0.03568621
C        5.67190554       0.88109191       7.07161486       71      -0.01144615       0.05104131       0.01660620
C        6.47791348       2.20227009      14.76010988       72       0.02400270       0.07007761      -0.04615737
C        2.48745018       4.77108236      11.20261173       73      -0.03821018       0.03733617      -0.00953613
C        1.50655626       2.44679915       2.54627155       74      -0.01638239      -0.02131652       0.05142032
C        5.49721717      -0.12126329       6.10461021       75       0.01727130      -0.00384473       0.00122651
C        7.13235319       2.51607956      13.57829150       76      -0.00517534      -0.01343367      -0.06261365
C        3.14092735       4.45889180      12.38485086       77      -0.00372941       0.01591660       0.09703538
C        0.85266966       2.13585749       3.72832430       78      -0.03486565      -0.05257568       0.12337753
C        4.84379414       0.19148144       4.92296317       79       0.01019196      -0.02564821      -0.08811046
C        7.58431455       3.82084915      13.36441058       80       0.04841913       0.03656380      -0.04361969
C        3.59113461       3.15419039      12.59832911       81       0.05918682      -0.07402932       0.02992567
C        0.40064374       0.82955687       3.94348772       82      -0.00906220       0.03754882       0.00250813
C        4.39382230       1.49658283       4.70845267       83      -0.06683986       0.03365988      -0.06758037
C        6.79545098       4.50410143      15.43503690       84      -0.01655907       0.03979126      -0.10096863
C        2.80318111       2.47168762      10.52855891       85      -0.08032561      -0.06118029      -0.01674569
C        1.18856692       0.14642511       1.87318715       86       0.05179734      -0.04758948       0.07554415
C        5.18094877       2.17897076       6.78017485       87       0.00895739       0.06849363      -0.12873808
C        6.64943092      -3.24602482      16.38339492       88      -0.07465535       0.01281855      -0.10799052
C        2.65553581       1.40110815       9.58172919       89      -0.09781855       0.06396422       0.03115708
C        1.33746246       7.89629974       0.92617023       90       0.01826740      -0.02379987       0.07835717
C        5.32877206       3.24699817       7.72847779       91       0.03513622       0.07949108      -0.11571062
C        1.34588018      -1.13956905      13.45127529       92      -0.04259855       0.02670258      -0.03466542
C        5.33824723      -0.70523060      12.51181353       93       0.00930727      -0.06122515       0.06479442
C        6.64154665       5.78899470       3.85411359       94       0.00021252      -0.05026419       0.05909450
C        2.64973959       5.35567267       4.79504356       95      -0.14692810       0.14801362      -0.13562807