98
Lattice="7.37271975 0.0 0.0 1.1259768972703388 16.998926138278502 0.0 0.5659665351017201 8.498507014006206 16.439939150838754" Properties=species:S:1:pos:R:3:spacegroup_kinds:I:1:forces:R:3 spacegroup="P 1" unit_cell=conventional occupancy="_JSON {\"0\": {\"Zn\": 1}, \"1\": {\"Zn\": 1}, \"2\": {\"H\": 1}, \"3\": {\"H\": 1}, \"4\": {\"H\": 1}, \"5\": {\"H\": 1}, \"6\": {\"H\": 1}, \"7\": {\"H\": 1}, \"8\": {\"H\": 1}, \"9\": {\"H\": 1}, \"10\": {\"H\": 1}, \"11\": {\"H\": 1}, \"12\": {\"H\": 1}, \"13\": {\"H\": 1}, \"14\": {\"H\": 1}, \"15\": {\"H\": 1}, \"16\": {\"H\": 1}, \"17\": {\"H\": 1}, \"18\": {\"H\": 1}, \"19\": {\"H\": 1}, \"20\": {\"H\": 1}, \"21\": {\"H\": 1}, \"22\": {\"H\": 1}, \"23\": {\"H\": 1}, \"24\": {\"H\": 1}, \"25\": {\"H\": 1}, \"26\": {\"H\": 1}, \"27\": {\"H\": 1}, \"28\": {\"H\": 1}, \"29\": {\"H\": 1}, \"30\": {\"H\": 1}, \"31\": {\"H\": 1}, \"32\": {\"H\": 1}, \"33\": {\"H\": 1}, \"34\": {\"C\": 1}, \"35\": {\"C\": 1}, \"36\": {\"C\": 1}, \"37\": {\"C\": 1}, \"38\": {\"C\": 1}, \"39\": {\"C\": 1}, \"40\": {\"C\": 1}, \"41\": {\"C\": 1}, \"42\": {\"C\": 1}, \"43\": {\"C\": 1}, \"44\": {\"C\": 1}, \"45\": {\"C\": 1}, \"46\": {\"C\": 1}, \"47\": {\"C\": 1}, \"48\": {\"C\": 1}, \"49\": {\"C\": 1}, \"50\": {\"C\": 1}, \"51\": {\"C\": 1}, \"52\": {\"C\": 1}, \"53\": {\"C\": 1}, \"54\": {\"C\": 1}, \"55\": {\"C\": 1}, \"56\": {\"C\": 1}, \"57\": {\"C\": 1}, \"58\": {\"C\": 1}, \"59\": {\"C\": 1}, \"60\": {\"C\": 1}, \"61\": {\"C\": 1}, \"62\": {\"C\": 1}, \"63\": {\"C\": 1}, \"64\": {\"C\": 1}, \"65\": {\"C\": 1}, \"66\": {\"C\": 1}, \"67\": {\"C\": 1}, \"68\": {\"C\": 1}, \"69\": {\"C\": 1}, \"70\": {\"C\": 1}, \"71\": {\"C\": 1}, \"72\": {\"C\": 1}, \"73\": {\"C\": 1}, \"74\": {\"C\": 1}, \"75\": {\"C\": 1}, \"76\": {\"C\": 1}, \"77\": {\"C\": 1}, \"78\": {\"C\": 1}, \"79\": {\"C\": 1}, \"80\": {\"C\": 1}, \"81\": {\"C\": 1}, \"82\": {\"N\": 1}, \"83\": {\"N\": 1}, \"84\": {\"N\": 1}, \"85\": {\"N\": 1}, \"86\": {\"N\": 1}, \"87\": {\"N\": 1}, \"88\": {\"N\": 1}, \"89\": {\"N\": 1}, \"90\": {\"O\": 1}, \"91\": {\"O\": 1}, \"92\": {\"O\": 1}, \"93\": {\"O\": 1}, \"94\": {\"O\": 1}, \"95\": {\"O\": 1}, \"96\": {\"O\": 1}, \"97\": {\"O\": 1}}" energy=-678.7532348632812 free_energy=-678.7532348632812 stress="-0.0005361796356737614 0.0002525496238376945 0.0016750073991715908 0.0002525496238376945 0.0012775501236319542 0.0014750256668776274 0.0016750073991715908 0.0014750256668776274 -0.0029479824006557465" pbc="T T T"
Zn       2.42072001       8.49469591      13.41400679        0      -0.10981245       0.16346338       0.24384856
Zn       6.63455038      17.00492098       3.03606334        1       0.20987913      -0.05380020      -0.30360144
H        5.59886123       9.71357910      12.13403060        2      -0.39752150      -0.26549119       0.39320219
H        6.62607317       7.33429744      12.12989160        3      -0.32722566      -0.27485102      -0.31496975
H        3.50043765      15.81233999       4.34259909        4      -0.18717504       0.24732491      -0.28213564
H        2.47747395      18.18118978       4.34660709        5      -0.54264975      -0.95192075      -0.99218887
H        3.87215128      10.87216303      10.69885693        6       0.31142774      -0.16328549      -0.11625279
H        0.92364912       6.18805353      10.70949041        7       0.53437889       0.10936592       0.05843954
H        5.18396284      14.62580809       5.73947305        8      -0.69709498      -0.14333892       0.14634541
H        8.14673881      19.36490451       5.77108599        9       0.17937836      -0.26262224      -0.19467494
H        7.01980315      12.88516150       8.54997685       10      -0.25349048      -0.31578952       0.58001786
H        6.26307774      21.13823855       8.54166894       11       0.08067434       0.22806174       0.48051277
H        2.02451311      12.61949564       7.86483958       12       0.05517517       0.54258174      -0.48433855
H        2.78235411       4.33835118       7.89907035       13       0.06724147       0.48594120       0.37413254
H        1.38653491      11.77700025      10.08037268       14      -0.04085627       0.03526525      -0.15210146
H        3.45149279       5.24951428      10.04816588       15      -0.43194473      -0.07237023      -0.06255034
H        7.68704390      13.75070532       6.38729696       16       0.16879487      -0.03119318      -0.04122261
H        5.61136479      20.29531538       6.40489217       17      -0.25665960      -0.01596700      -0.03747422
H        3.35350609      17.93622623       1.96332420       18      -0.12863496       0.24459578       0.20530157
H        2.60617990      16.02363653       1.96769484       19       0.19592564       0.80192167       1.52617824
H        5.72426009       7.53962297      14.45688021       20       0.09490357       0.00919448       0.31202281
H        6.45148652       9.44248454      14.44192459       21       0.15227693       0.22228003       0.86743814
H        3.01638326       3.32628631       1.79369074       22       0.05088744      -0.09709670      -0.26566312
H        1.76758269      13.69094421       1.79746141       23      -0.25952953      -0.70613861       1.01432133
H        6.02218662      22.17794686      14.63891598       24       0.12547067       0.61085391       0.64098740
H        7.26502702      11.83018787      14.62298377       25       0.01606321      -0.50376058       0.22020353
H        3.92478724      12.81412792      15.95560159       26      -0.15997657      -0.63709468      -0.01920739
H        2.01825420      21.18719821      15.95731791       27       0.17481782       0.53589857      -0.12102228
H        5.14227434      12.69051225       0.47408290       28      -0.12405962      -0.22606842      -0.01215976
H        7.04280985       4.32778776       0.47385776       29       0.00894285       0.21107814       0.00555564
H        3.39773900      11.36153146      13.95891863       30       0.17658614       0.48766005      -1.24250913
H        2.54515523      22.58554261      13.96119472       31      -0.03801526       0.29195720       0.21817014
H        5.69517916      14.08070227       2.48426620       32      -0.14056262      -0.23180488       0.72054118
H        6.53665883       2.86612690       2.48274928       33       0.02303919       0.48193741       0.55561614
C        0.89434003       9.96190837      11.99568715       34      -0.02607244      -0.47188705       0.95946902
C        3.88218481       6.98389120      12.03406274       35       1.05403745       0.79005325       0.03899351
C        8.12387996      15.50379087       4.43997563       36       1.55626035      -0.28292558       0.40239060
C        5.14701084      18.46480350       4.42972741       37       0.87935400       1.65111279       0.58266425
C        7.27369286      10.64560764      11.18608143       38      -1.24278688       1.09272051      -1.14191532
C        4.91932251       6.34985145      11.19116695       39      -0.59751540      -0.90629065      -0.89735878
C        1.79874181      14.79838804       5.28550168       40      -0.61253381       2.02926922      -1.84503222
C        4.14026740      19.15227713       5.24556282       41      -0.04048544       1.19562507       1.63510859
C        5.87298988      10.42941243      11.38265771       42       1.54703808      -0.15621237      -0.58902609
C        6.27504266       6.62130208      11.36111685       43       1.19889843       0.13180952       0.30472636
C        3.13261193      15.11802325       5.08125040       44       1.63725042      -1.55579233       1.30640686
C        2.76807013      18.87381403       5.08042801       45       1.26041508       0.78546238       0.64360374
C        4.95105130      11.00757326      10.52749654       46      -0.84570163      -0.24295112       1.18089080
C        7.25007124       5.99934490      10.57310887       47      -2.05481839      -1.09619653      -1.22479820
C        4.09991023      14.43572423       5.90583962       48      -0.12024651       2.17550468      -2.03873467
C        1.85508473      19.49890105       5.88110245       49      -1.03070045       1.04002213       1.21272099
C        5.36819858      11.87315503       9.54282369       50      -0.07456841       1.34597993      -1.39480257
C        6.79525773       5.08078388       9.51782618       51       1.22855997       1.52547884       1.67086053
C        3.66583094      13.62673455       6.91974364       52       0.80208254      -0.74771786       0.38758758
C        2.23736716      20.39957541       6.93391531       53      -0.21940854      -0.77445829      -1.34589052
C        6.72557419      12.19823719       9.37116903       54       1.08256912      -0.35095644      -0.16453265
C        6.55710638      21.80815502       9.37154825       55      -0.11868162      -0.31755298      -1.04917288
C        2.29689269      13.34992152       7.07027849       56       0.72432333      -1.48924935       2.02668905
C        2.46603166       3.69973591       7.09818849       57       0.74561715      -0.64771235      -0.37017521
C        7.69266692      11.56790260      10.17254423       58      -0.86399138      -0.11432807       0.35427123
C        4.50546578       5.44512685      10.16080626       59       0.29785919       0.48414028       1.04043889
C        1.38775426      13.94447552       6.27044126       60      -1.61300290      -0.67447114       0.35243088
C        4.53962666      20.09237986       6.27725734       61      -0.24840370      -0.78316677      -0.91019893
C        2.63728551       9.22169034      16.29452940       62       0.19931185      -0.74184620      -0.98805249
C        3.31766036      24.80625369      16.26995452       63      -0.51755613       0.07469082       1.11854315
C        6.40777564      16.26964623       0.13941781       64       0.87626320       3.45825434       3.15197539
C        5.77326325       0.72811025       0.17136701       65      -0.63381261      -2.37626457       0.73905647
C        2.31324451       1.44905287       1.01109570       66       0.26654398      -0.10371830      -0.06132950
C        2.46455743      15.59813411       1.02836049       67      -0.47003263      -2.39911079      -2.42377520
C        6.74142253      24.10604316      15.45603391       68      -1.16464162      -2.87437868      -2.96562457
C        6.60610890       9.90477176      15.44427162       69       0.10049090       0.60420948      -1.64310598
C        2.80800755       2.74605888       0.88264623       70      -0.20251010      -0.28205979       1.28896403
C        1.99365931      14.23870511       0.92406522       71       0.83505082       2.80433369      -1.37000680
C        6.23604842      22.78357475      15.55680562       72       0.17691430       0.04576793      -1.00906730
C        7.07758804      11.20419539      15.51454294       73      -0.00097709       1.38040280       0.88280869
C        3.56731690      11.76802480      16.07141115       74       0.29140145       1.43976605      -0.87430835
C        2.38338767      22.22709639      16.07179095       75      -0.50879061      -1.26970029       1.22231793
C        5.48257866      13.71332514       0.36979022       76      -0.06346756      -0.52490103      -0.63149494
C        6.66132129       3.32031185       0.36541663       77       0.05354267      -0.81698692      -1.46083069
C        3.28534522      10.99913170      14.94190102       78      -0.02608343      -0.47943494       1.41325843
C        2.64255429      23.00382176      14.97444417       79       0.50178635       0.30953851      -0.99511224
C        5.76268760      14.45109983       1.48520741       80       0.84210134       2.59114408      -0.16834682
C        6.39432164       2.55337743       1.46828963       81      -0.55909425      -2.08481693       0.31883815
N        2.86067330       9.73765531      15.05261340       82      -0.21393463       0.36457670       0.32974795
N        3.11217048      24.26435060      15.05109835       83      -0.22738437      -0.62999427       0.24384972
N        6.19929438      15.76382968       1.37910053       84      -0.45188281      -2.12856340       0.16011085
N        5.94679317       1.23204903       1.40461354       85       0.68809748       2.22955656      -0.78558290
N        4.33270998      12.47030716       8.74996026       86       0.93388557       0.22927779      -1.03352082
N        0.45707550       4.57926384       8.74153633       87      -0.59826970      -0.93919975      -1.47253454
N        4.74430697      13.07468695       7.67043515       88      -1.26087165      -0.91791916       1.77246332
N        8.56066049      20.92498716       7.67107218       89       0.46595800       0.77899563       1.66112268
O        2.11478698      10.29227206      11.96354876       90       0.52104479       0.09870791      -0.21050417
O        2.66835023       6.65197881      11.96386152       91      -0.19691299      -0.01636428       0.13280043
O        6.91975997      15.19187633       4.47743988       92      -1.55248404      -0.67907631       0.38057604
O        6.37477617      18.83648916       4.45089712       93      -0.26375324      -0.26615599       0.15643281
O        7.87143256       9.02403637      12.80785270       94       0.10199159      -0.02822235      -0.34032044
O        4.30776630       7.94804976      12.81636773       95      -0.67978185      -0.44654241      -0.35041732
O        1.15188655      16.43644078       3.66369114       96       0.41902751       0.74590200      -0.38446105
O        4.75490052      17.55117074       3.65489550       97      -0.51717216      -1.54196632      -0.85284770
98
Lattice="7.37271975 0.0 0.0 1.1259768972703388 16.998926138278502 0.0 0.5659665351017201 8.498507014006206 16.439939150838754" Properties=species:S:1:pos:R:3:spacegroup_kinds:I:1:forces:R:3 spacegroup="P 1" unit_cell=conventional occupancy="_JSON {\"0\": {\"Zn\": 1}, \"1\": {\"Zn\": 1}, \"2\": {\"H\": 1}, \"3\": {\"H\": 1}, \"4\": {\"H\": 1}, \"5\": {\"H\": 1}, \"6\": {\"H\": 1}, \"7\": {\"H\": 1}, \"8\": {\"H\": 1}, \"9\": {\"H\": 1}, \"10\": {\"H\": 1}, \"11\": {\"H\": 1}, \"12\": {\"H\": 1}, \"13\": {\"H\": 1}, \"14\": {\"H\": 1}, \"15\": {\"H\": 1}, \"16\": {\"H\": 1}, \"17\": {\"H\": 1}, \"18\": {\"H\": 1}, \"19\": {\"H\": 1}, \"20\": {\"H\": 1}, \"21\": {\"H\": 1}, \"22\": {\"H\": 1}, \"23\": {\"H\": 1}, \"24\": {\"H\": 1}, \"25\": {\"H\": 1}, \"26\": {\"H\": 1}, \"27\": {\"H\": 1}, \"28\": {\"H\": 1}, \"29\": {\"H\": 1}, \"30\": {\"H\": 1}, \"31\": {\"H\": 1}, \"32\": {\"H\": 1}, \"33\": {\"H\": 1}, \"34\": {\"C\": 1}, \"35\": {\"C\": 1}, \"36\": {\"C\": 1}, \"37\": {\"C\": 1}, \"38\": {\"C\": 1}, \"39\": {\"C\": 1}, \"40\": {\"C\": 1}, \"41\": {\"C\": 1}, \"42\": {\"C\": 1}, \"43\": {\"C\": 1}, \"44\": {\"C\": 1}, \"45\": {\"C\": 1}, \"46\": {\"C\": 1}, \"47\": {\"C\": 1}, \"48\": {\"C\": 1}, \"49\": {\"C\": 1}, \"50\": {\"C\": 1}, \"51\": {\"C\": 1}, \"52\": {\"C\": 1}, \"53\": {\"C\": 1}, \"54\": {\"C\": 1}, \"55\": {\"C\": 1}, \"56\": {\"C\": 1}, \"57\": {\"C\": 1}, \"58\": {\"C\": 1}, \"59\": {\"C\": 1}, \"60\": {\"C\": 1}, \"61\": {\"C\": 1}, \"62\": {\"C\": 1}, \"63\": {\"C\": 1}, \"64\": {\"C\": 1}, \"65\": {\"C\": 1}, \"66\": {\"C\": 1}, \"67\": {\"C\": 1}, \"68\": {\"C\": 1}, \"69\": {\"C\": 1}, \"70\": {\"C\": 1}, \"71\": {\"C\": 1}, \"72\": {\"C\": 1}, \"73\": {\"C\": 1}, \"74\": {\"C\": 1}, \"75\": {\"C\": 1}, \"76\": {\"C\": 1}, \"77\": {\"C\": 1}, \"78\": {\"C\": 1}, \"79\": {\"C\": 1}, \"80\": {\"C\": 1}, \"81\": {\"C\": 1}, \"82\": {\"N\": 1}, \"83\": {\"N\": 1}, \"84\": {\"N\": 1}, \"85\": {\"N\": 1}, \"86\": {\"N\": 1}, \"87\": {\"N\": 1}, \"88\": {\"N\": 1}, \"89\": {\"N\": 1}, \"90\": {\"O\": 1}, \"91\": {\"O\": 1}, \"92\": {\"O\": 1}, \"93\": {\"O\": 1}, \"94\": {\"O\": 1}, \"95\": {\"O\": 1}, \"96\": {\"O\": 1}, \"97\": {\"O\": 1}}" energy=-677.6348266601562 free_energy=-677.6348266601562 stress="0.00046520409523509443 0.001253909314982593 0.0015249282587319613 0.001253909314982593 0.0008641954627819359 0.002535011153668165 0.0015249282587319613 0.002535011153668165 -0.004258373286575079" pbc="T T T"
Zn       2.43241196       8.51769170      13.42188186        0      -0.05400232       0.13106936       0.04492673
Zn       6.63948062      16.99486558       3.00720159        1      -0.11164358      -0.05487602       0.18772011
H        5.59056075       9.72029856      12.10523695        2      -0.29960150      -0.29405198       0.42282856
H        6.64249973       7.35357810      12.11394874        3      -0.44125032      -0.53569049      -0.51897269
H        3.49563066      15.79058208       4.35329236        4       0.20758016       0.83683944      -0.96742028
H        2.48574079      18.20991386       4.33855879        5      -0.29133487      -0.93503290      -0.89512843
H        3.90109158      10.87513882      10.68648384        6      -0.06781373      -0.29278341       0.07039575
H        0.93377044       6.19709990      10.73315250        7      -0.06538611       0.00027912      -0.17195404
H        5.16149104      14.65266762       5.75082155        8      -0.73588878      -0.28416604      -0.00914639
H        8.16228019      19.35391280       5.76213428        9       0.29998052      -0.38793272      -0.33482486
H        7.01098361      12.88769281       8.54087437       10      -0.13385108      -0.43297809       0.61809528
H        6.27908542      21.12667957       8.56542445       11       0.16171631       0.10861367       0.31630853
H        2.03414513      12.59175354       7.88573014       12       0.33801839       1.36979866      -1.19020796
H        2.80873685       4.32502927       7.88540981       13      -0.01834939       0.43275309       0.22353563
H        1.41009624      11.75928168      10.09270865       14      -0.17256337       0.17153494      -0.15079856
H        3.46254074       5.24497003      10.05097810       15      -0.43423793      -0.05349319      -0.06211094
H        7.69919503      13.74306297       6.38103581       16      -0.84472555      -0.29223126       0.07286562
H        5.63147912      20.29199955       6.38219371       17      -0.39206126       0.15296116       0.01767422
H        3.36615001      17.91270314       1.96243417       18      -0.17598709       0.02773210       0.93817580
H        2.62081091      16.02824275       1.98351672       19      -0.05069423       0.07645878      -0.09643182
H        5.73069213       7.52752692      14.44636686       20      -0.02323763      -0.29729944       0.73112947
H        6.45822262       9.41503975      14.46971176       21       0.23474605       0.66041064       1.16254044
H        3.00617144       3.34218674       1.81303487       22      -0.02537329      -0.88252962      -1.38116252
H        1.79663201      13.70491669       1.77392069       23      -0.81227541      -2.20190287       3.31606627
H        6.04223576      22.20315038      14.63670557       24      -0.00275727       0.34114441       0.65220296
H        7.28881181      11.85733583      14.63177148       25      -0.07264511      -0.61751395      -0.07132563
H        3.94672763      12.81975190      15.95789599       26      -0.28684601      -1.16453278       0.25518763
H        2.04726435      21.18898177      15.93545346       27       0.27453506       1.01409101      -0.14010419
H        5.11836742      12.67992473       0.45363501       28       0.08116278       0.31639490      -0.05476593
H        7.06013693       4.32599138       0.49673099       29      -0.16974026      -0.34443149      -0.19965136
H        3.42257211      11.36482615      13.96988035       30       0.16252023       0.66130590      -1.04828715
H        2.53678762      22.55783938      13.97079821       31      -0.03424014       0.79515237       0.87915325
H        5.70706992      14.10531708       2.47045017       32      -0.26715323      -0.96181345       2.08026028
H        6.54322514       2.87055471       2.47496606       33       0.09611470       0.59361440       1.02265298
C        0.88304289       9.95256401      11.97534427       34       1.95426464      -0.44872689       2.04737020
C        3.90397881       6.95741402      12.05114640       35       0.17789076       1.34911489      -0.55607963
C        8.14086903      15.53237760       4.41114598       36      -0.46323979      -1.80174899       1.69433761
C        5.14856674      18.46039360       4.45260533       37       1.11356449       0.67666042      -0.65887356
C        7.28373263      10.63960715      11.17190648       38      -1.49612141       1.22928858      -1.15752947
C        4.93200646       6.35862482      11.18313096       39      -0.67289865      -1.14430892      -0.75658464
C        1.81351048      14.80397260       5.26809597       40      -2.00191331       0.88369346      -0.90086192
C        4.16850858      19.16624108       5.25427188       41      -0.61053777       0.92890203       1.31038809
C        5.87754189      10.43694758      11.35847593       42       2.48999834      -1.06919527       0.62427461
C        6.28182881       6.62865006      11.34257744       43       1.16863322       0.65148544       0.78735560
C        3.14491649      15.10020963       5.06739467       44       0.60224533      -1.52022481       1.32004595
C        2.79502072      18.88061710       5.09024511       45       1.63904953       0.01598713      -0.41491762
C        4.97244164      11.00260619      10.53599095       46      -1.77011788       0.52353877       0.04363005
C        7.24642385       6.01026074      10.54962481       47      -0.58797652      -0.38083202      -0.27477255
C        4.07484212      14.43073808       5.87895444       48       1.03082728       1.66789126      -0.65435362
C        1.87724974      19.47315227       5.85432189       49      -2.01812696       2.70769548       3.18088865
C        5.37251606      11.86340596       9.54775044       50       0.43673310       1.63580310      -2.15589428
C        6.81319140       5.10930048       9.54024211       51       0.97971821       0.17926994       0.14431608
C        3.65609729      13.65295755       6.94204524       52       1.93275237      -0.62083465      -0.70445454
C        2.24078385      20.41358751       6.94250402       53      -0.35003734      -1.70822096      -2.31106997
C        6.74725805      12.18375758       9.36121348       54       0.16396698       0.04955701      -0.15778805
C        6.58234217      21.80235813       9.37795511       55      -0.62576270       0.35267973      -0.43729591
C        2.31082954      13.37629708       7.07678742       56      -0.72991991      -2.73487473       3.00487995
C        2.47256067       3.70244295       7.07129865       57       0.51122755       0.03411680       0.40449131
C        7.70590311      11.58916914      10.18454069       58      -0.47558233      -0.61190438       0.21176717
C        4.51375446       5.45765844      10.15700469       59       0.69562781      -0.02324949       0.67328012
C        1.37044203      13.92081248       6.27099423       60       0.40632683       0.90395457      -0.94688869
C        4.55163444      20.12158571       6.24776026       61       0.18406723      -1.10267138      -0.77575564
C        2.64236298       9.19623606      16.29817618       62       0.80876797       1.04619718      -1.05090952
C        3.33399948      24.80900364      16.27017478       63      -0.65988636      -0.46342394       0.59982800
C        6.41394745      16.29383786       0.13602040       64       0.51082826       1.31643128       2.91767931
C        5.78098273       0.72089055       0.15635744       65      -0.62814069      -1.82782745       2.45866537
C        2.31467209       1.42973174       1.03567910       66       0.37526360      -0.10629728      -2.12211967
C        2.46515425      15.57844771       1.00406605       67      -0.23359209      -1.43345237       0.40086249
C        6.74034612      24.08296792      15.46009477       68      -0.67608845      -1.21570551      -2.28865623
C        6.61667909       9.93457603      15.46783747       69      -0.49755830      -1.39770913      -3.33708334
C        2.83082916       2.71818603       0.85740147       70      -0.39318544       0.13259359       4.64859295
C        1.98487986      14.22856814       0.94761257       71       1.64939523       4.49201584      -4.82754230
C        6.23525276      22.76937102      15.57890662       72       0.46669865       0.75216734      -2.84706593
C        7.07747718      11.20330724      15.48990901       73       0.64317656       2.71910095       1.83274102
C        3.59447361      11.75113963      16.09103484       74       0.70333523       2.99141359      -1.95260489
C        2.39744776      22.25368331      16.05614790       75      -1.32699609      -3.23854661       3.56715679
C        5.48389675      13.71354837       0.34614930       76      -0.43537849      -1.63605309       2.00499129
C        6.67695965       3.30310618       0.35077589       77       0.08266760      -0.33554646      -0.54968071
C        3.29671797      11.02153020      14.96284526       78       0.00079953      -1.08146977       0.13834131
C        2.61571366      23.01913967      14.99939735       79       1.39428616       1.24169183      -3.60518551
C        5.78373721      14.43890839       1.49751307       80       0.78535974       2.85211754      -2.24907613
C        6.40423286       2.54688562       1.47782949       81      -0.74049795      -2.53212643      -0.91283923
N        2.87863544       9.76454916      15.02979959       82      -0.65705180      -0.75667560       1.89811027
N        3.13831976      24.27723918      15.05379244       83      -0.74001467      -1.10120535      -0.04044804
N        6.22896294      15.73573129       1.40889570       84      -0.36827448      -1.18844819      -1.39514351
N        5.94258319       1.20764573       1.41914874       85       0.98654628       2.92391229      -1.46387875
N        4.33125286      12.45140305       8.72528892       86       1.63608027       0.19790326      -0.75239271
N        0.46906642       4.56942446       8.73224269       87      -0.65741980      -0.01688242      -0.08522770
N        4.76203469      13.05415673       7.64129086       88      -1.95796704      -0.71559709       2.18778110
N        8.55270874      20.92623824       7.69888985       89       0.77610373       0.13337788       0.50228220
O        2.13619204      10.30387095      11.97864377       90      -1.13668060      -0.30924210      -0.47337157
O        2.67919792       6.66698138      11.96169647       91      -0.25681001      -0.57327306       0.08710724
O        6.89210913      15.21519394       4.46885051       92       0.80464888       0.06439283       0.01703072
O        6.37696898      18.85311428       4.46794291       93      -0.69476748      -0.72564936      -0.08063135
O        7.89266750       9.02430525      12.83372437       94      -0.14022076       0.38921481      -1.05761600
O        4.28836808       7.95301501      12.78899429       95       0.08224833      -0.10771152       0.30557990
O        1.17471328      16.45970133       3.67448676       96       0.51738250       1.36939466      -1.04833007
O        4.73539213      17.52189027       3.66235147       97       0.41956893      -0.13882270       0.26972255
98
Lattice="7.37271975 0.0 0.0 1.1259768972703388 16.998926138278502 0.0 0.5659665351017201 8.498507014006206 16.439939150838754" Properties=species:S:1:pos:R:3:spacegroup_kinds:I:1:forces:R:3 spacegroup="P 1" unit_cell=conventional occupancy="_JSON {\"0\": {\"Zn\": 1}, \"1\": {\"Zn\": 1}, \"2\": {\"H\": 1}, \"3\": {\"H\": 1}, \"4\": {\"H\": 1}, \"5\": {\"H\": 1}, \"6\": {\"H\": 1}, \"7\": {\"H\": 1}, \"8\": {\"H\": 1}, \"9\": {\"H\": 1}, \"10\": {\"H\": 1}, \"11\": {\"H\": 1}, \"12\": {\"H\": 1}, \"13\": {\"H\": 1}, \"14\": {\"H\": 1}, \"15\": {\"H\": 1}, \"16\": {\"H\": 1}, \"17\": {\"H\": 1}, \"18\": {\"H\": 1}, \"19\": {\"H\": 1}, \"20\": {\"H\": 1}, \"21\": {\"H\": 1}, \"22\": {\"H\": 1}, \"23\": {\"H\": 1}, \"24\": {\"H\": 1}, \"25\": {\"H\": 1}, \"26\": {\"H\": 1}, \"27\": {\"H\": 1}, \"28\": {\"H\": 1}, \"29\": {\"H\": 1}, \"30\": {\"H\": 1}, \"31\": {\"H\": 1}, \"32\": {\"H\": 1}, \"33\": {\"H\": 1}, \"34\": {\"C\": 1}, \"35\": {\"C\": 1}, \"36\": {\"C\": 1}, \"37\": {\"C\": 1}, \"38\": {\"C\": 1}, \"39\": {\"C\": 1}, \"40\": {\"C\": 1}, \"41\": {\"C\": 1}, \"42\": {\"C\": 1}, \"43\": {\"C\": 1}, \"44\": {\"C\": 1}, \"45\": {\"C\": 1}, \"46\": {\"C\": 1}, \"47\": {\"C\": 1}, \"48\": {\"C\": 1}, \"49\": {\"C\": 1}, \"50\": {\"C\": 1}, \"51\": {\"C\": 1}, \"52\": {\"C\": 1}, \"53\": {\"C\": 1}, \"54\": {\"C\": 1}, \"55\": {\"C\": 1}, \"56\": {\"C\": 1}, \"57\": {\"C\": 1}, \"58\": {\"C\": 1}, \"59\": {\"C\": 1}, \"60\": {\"C\": 1}, \"61\": {\"C\": 1}, \"62\": {\"C\": 1}, \"63\": {\"C\": 1}, \"64\": {\"C\": 1}, \"65\": {\"C\": 1}, \"66\": {\"C\": 1}, \"67\": {\"C\": 1}, \"68\": {\"C\": 1}, \"69\": {\"C\": 1}, \"70\": {\"C\": 1}, \"71\": {\"C\": 1}, \"72\": {\"C\": 1}, \"73\": {\"C\": 1}, \"74\": {\"C\": 1}, \"75\": {\"C\": 1}, \"76\": {\"C\": 1}, \"77\": {\"C\": 1}, \"78\": {\"C\": 1}, \"79\": {\"C\": 1}, \"80\": {\"C\": 1}, \"81\": {\"C\": 1}, \"82\": {\"N\": 1}, \"83\": {\"N\": 1}, \"84\": {\"N\": 1}, \"85\": {\"N\": 1}, \"86\": {\"N\": 1}, \"87\": {\"N\": 1}, \"88\": {\"N\": 1}, \"89\": {\"N\": 1}, \"90\": {\"O\": 1}, \"91\": {\"O\": 1}, \"92\": {\"O\": 1}, \"93\": {\"O\": 1}, \"94\": {\"O\": 1}, \"95\": {\"O\": 1}, \"96\": {\"O\": 1}, \"97\": {\"O\": 1}}" energy=-676.4873657226562 free_energy=-676.4873657226562 stress="0.0007549976580776274 0.0023973817005753517 0.0016012414125725627 0.0023973817005753517 0.002076116856187582 0.0029445586260408163 0.0016012414125725627 0.0029445586260408163 -0.006309103220701218" pbc="T T T"
Zn       2.42605812       8.53288903      13.40089678        0       0.17782363      -0.16366015       0.20809881