120
Lattice="9.65027177 0.0 0.0 -0.11121764535837397 10.745036760384254 0.0 -2.7402099635058077 -2.200731384707416 12.813707109897463" Properties=species:S:1:pos:R:3:spacegroup_kinds:I:1:forces:R:3 spacegroup="P 1" unit_cell=conventional occupancy="_JSON {\"0\": {\"Cu\": 1}, \"1\": {\"Cu\": 1}, \"2\": {\"H\": 1}, \"3\": {\"H\": 1}, \"4\": {\"H\": 1}, \"5\": {\"H\": 1}, \"6\": {\"H\": 1}, \"7\": {\"H\": 1}, \"8\": {\"H\": 1}, \"9\": {\"H\": 1}, \"10\": {\"H\": 1}, \"11\": {\"H\": 1}, \"12\": {\"H\": 1}, \"13\": {\"H\": 1}, \"14\": {\"H\": 1}, \"15\": {\"H\": 1}, \"16\": {\"H\": 1}, \"17\": {\"H\": 1}, \"18\": {\"H\": 1}, \"19\": {\"H\": 1}, \"20\": {\"H\": 1}, \"21\": {\"H\": 1}, \"22\": {\"H\": 1}, \"23\": {\"H\": 1}, \"24\": {\"H\": 1}, \"25\": {\"H\": 1}, \"26\": {\"H\": 1}, \"27\": {\"H\": 1}, \"28\": {\"H\": 1}, \"29\": {\"H\": 1}, \"30\": {\"H\": 1}, \"31\": {\"H\": 1}, \"32\": {\"H\": 1}, \"33\": {\"H\": 1}, \"34\": {\"H\": 1}, \"35\": {\"H\": 1}, \"36\": {\"H\": 1}, \"37\": {\"H\": 1}, \"38\": {\"H\": 1}, \"39\": {\"H\": 1}, \"40\": {\"H\": 1}, \"41\": {\"H\": 1}, \"42\": {\"H\": 1}, \"43\": {\"H\": 1}, \"44\": {\"H\": 1}, \"45\": {\"H\": 1}, \"46\": {\"H\": 1}, \"47\": {\"H\": 1}, \"48\": {\"H\": 1}, \"49\": {\"H\": 1}, \"50\": {\"C\": 1}, \"51\": {\"C\": 1}, \"52\": {\"C\": 1}, \"53\": {\"C\": 1}, \"54\": {\"C\": 1}, \"55\": {\"C\": 1}, \"56\": {\"C\": 1}, \"57\": {\"C\": 1}, \"58\": {\"C\": 1}, \"59\": {\"C\": 1}, \"60\": {\"C\": 1}, \"61\": {\"C\": 1}, \"62\": {\"C\": 1}, \"63\": {\"C\": 1}, \"64\": {\"C\": 1}, \"65\": {\"C\": 1}, \"66\": {\"C\": 1}, \"67\": {\"C\": 1}, \"68\": {\"C\": 1}, \"69\": {\"C\": 1}, \"70\": {\"C\": 1}, \"71\": {\"C\": 1}, \"72\": {\"C\": 1}, \"73\": {\"C\": 1}, \"74\": {\"C\": 1}, \"75\": {\"C\": 1}, \"76\": {\"C\": 1}, \"77\": {\"C\": 1}, \"78\": {\"C\": 1}, \"79\": {\"C\": 1}, \"80\": {\"C\": 1}, \"81\": {\"C\": 1}, \"82\": {\"C\": 1}, \"83\": {\"C\": 1}, \"84\": {\"C\": 1}, \"85\": {\"C\": 1}, \"86\": {\"C\": 1}, \"87\": {\"C\": 1}, \"88\": {\"C\": 1}, \"89\": {\"C\": 1}, \"90\": {\"C\": 1}, \"91\": {\"C\": 1}, \"92\": {\"C\": 1}, \"93\": {\"C\": 1}, \"94\": {\"C\": 1}, \"95\": {\"C\": 1}, \"96\": {\"C\": 1}, \"97\": {\"C\": 1}, \"98\": {\"C\": 1}, \"99\": {\"C\": 1}, \"100\": {\"C\": 1}, \"101\": {\"C\": 1}, \"102\": {\"Br\": 1}, \"103\": {\"Br\": 1}, \"104\": {\"Br\": 1}, \"105\": {\"Br\": 1}, \"106\": {\"N\": 1}, \"107\": {\"N\": 1}, \"108\": {\"N\": 1}, \"109\": {\"N\": 1}, \"110\": {\"O\": 1}, \"111\": {\"O\": 1}, \"112\": {\"O\": 1}, \"113\": {\"O\": 1}, \"114\": {\"O\": 1}, \"115\": {\"O\": 1}, \"116\": {\"O\": 1}, \"117\": {\"O\": 1}, \"118\": {\"O\": 1}, \"119\": {\"O\": 1}}" energy=-770.114990234375 free_energy=-770.114990234375 stress="-0.0006811206112615764 0.0005878977826796472 -0.0006441085715778172 0.0005878977826796472 0.000791476690210402 0.00016714319644961506 -0.0006441085715778172 0.00016714319644961506 -0.0024609325919300318" pbc="T T T"
Cu      -0.00000904      -0.00000317       0.00000982        0      -0.00597967       0.01388807      -0.00994724
Cu       2.08487833      -2.20068664      12.81366901        1      -0.00327584       0.00168074      -0.01521684
H        7.75188930       1.92655257       1.05579862        2      -0.06658015       0.01068834      -0.02303763
H       -0.95610098       6.62027732      11.75566112        3       0.07921860      -0.01515188       0.02611120
H        7.39769931       3.14308772       3.20181400        4      -0.00147149      -0.05761869       0.04155738
H       -0.60123742       5.40092467       9.61118503        5      -0.01022499       0.07253066      -0.04131262
H        1.29643979       1.21462909       4.71576197        6       0.01188259      -0.00196399       0.00906663
H        5.50055149       7.33102691       8.09621855        7      -0.00322936      -0.00289014      -0.00622322
H        1.52001295       0.09337721       2.50787974        8       0.12250614      -0.02169297      -0.02940119
H        5.27691743       8.45245355      10.30399050        9      -0.12164896       0.02365741       0.02195393
H        0.19060829       3.33970901       5.88637236       10       0.01601946      -0.00969721       0.01330678
H        6.60557605       5.20500780       6.92505911       11       0.04055026       0.04207181       0.00680558
H       -1.13945855       2.21265393       6.21955944       12      -0.01252142       0.02887516       0.07202740
H        7.93771732       6.33300496       6.59219320       13       0.01003157      -0.02375779      -0.07121004
H        8.18099646       3.75006205       5.38801698       14      -0.00827497       0.01459821       0.07178997
H       -1.38489739       4.79583167       7.42374015       15       0.02602763      -0.02511043      -0.06555790
H        0.84405200       5.90280077       5.56512930       16      -0.02103698       0.02799555      -0.03992526
H        5.95266219       2.64284583       7.24649403       17       0.01244572      -0.02439140       0.02624585
H        1.90542738       4.16174710       4.12879985       18       0.03346427      -0.02003045       0.00560367
H        4.89059995       4.38486278       8.68196235       19      -0.01743508      -0.00695705       0.02047575
H        1.87192632       4.37157121       1.67327659       20      -0.02824719       0.01751021       0.02319746
H        4.92464767       4.17337003      11.13784639       21       0.02190210      -0.00584787      -0.01490818
H        0.80292263       6.39542599       0.61997657       22      -0.01854087      -0.04478306      -0.02968764
H        5.99490861       2.15024507      12.19241192       23       0.01761872       0.05481583       0.00247687
H        6.25178234       0.28648620       2.57330640       24       0.11237000       0.05443289       0.00649626
H        0.54412158       8.26013731      10.23682240       25      -0.10332145      -0.05197762       0.00888309
H        6.12276125      -0.71080640       4.85158488       26       0.00577524      -0.02152915       0.02398461
H        0.67474326       9.25606821       7.96071051       27      -0.02722422       0.00840491      -0.03621855
H        2.65215431       7.70495660       3.45968049       28       0.04027148       0.06191509       0.01848918
H        4.14464546       0.84067100       9.35175535       29      -0.03256644      -0.05905242      -0.01766167
H        2.87585656       8.84928856       1.25732954       30      -0.05485798      -0.00909858      -0.04883552
H        3.92093440      -0.30291927      11.55467875       31       0.03380667      -0.00349288       0.01845563
H        4.12165892       8.82679922       6.50996458       32      -0.03704216      -0.06058121       0.03462751
H        2.67497514      -0.28007399       6.30299453       33       0.04184475       0.02880917      -0.07050605
H        5.16104317       7.54146785       5.89045808       34      -0.02641521      -0.02627799       0.06676227
H        1.63748704       1.00365282       6.92187063       35      -0.03448145       0.06545343      -0.08285711
H        3.39201976       7.39028469       5.73604098       36       0.00599046       0.00939594       0.04729500
H        3.40459400       1.15517689       7.07544038       37       0.01119738       0.00643320      -0.04756818
H        5.67933502       5.52874900       4.92434187       38      -0.01682441       0.01282690      -0.02997877
H        1.11674045       3.01693809       7.88756662       39       0.01784716      -0.01479163       0.00448023
H        6.77649143       7.09932791       3.29542154       40       0.03640929       0.03663706      -0.02224398
H        0.02093218       1.44545619       9.51485941       41      -0.02407008      -0.00526157       0.04046623
H        6.84992825       6.52415297       0.89955866       42      -0.00431446       0.00481108       0.00150248
H       -0.05280748       2.02200945      11.91192046       43      -0.00683733      -0.02029031       0.00643220
H        5.82147212       4.38596969       0.09577504       44      -0.02210490       0.03931116      -0.00162202
H        0.97670083       4.15929874      12.71587153       45       0.01697200      -0.04114711       0.03868620
H       -0.55939806      -1.16655084      11.97388773       46       0.03328591      -0.01296543       0.09862769
H        7.35915278       9.71360373       0.83437783       47      -0.03997911       0.01283681      -0.10393108
H        2.64377379       1.18676938       0.65791410       48      -0.03420740      -0.07897914      -0.10376126
H        4.15625900       7.36162623      12.15092812       49       0.02143300       0.03244071       0.06643721
C        8.43659152       1.80901523       1.89234243       50      -0.01213744       0.07672385       0.02403972
C       -1.63985332       6.73836914      10.91869323       51       0.05231199      -0.12867878      -0.00138119
C        8.24218947       2.46670470       3.09915011       52      -0.01905905      -0.03118552       0.01581340
C       -1.44514602       6.07897091       9.71286147       53       0.01287743       0.02874315      -0.03995667
C       -0.52618838       2.26088197       4.16100759       54       0.09271574       0.06516406      -0.02244310
C        7.32258551       6.28459947       8.65094946       55      -0.03073193      -0.09244023       0.03735183
C        0.55281740       1.39869150       3.94331263       56      -0.03065448      -0.00193323       0.00085089
C        6.24459758       7.14618748       8.86855598       57      -0.01990221       0.04911222      -0.01335081
C        0.69676826       0.77036798       2.71193782       58       0.01168394       0.02919012       0.21270183
C        6.10033645       7.77627494      10.09837263       59       0.03474571      -0.05475233      -0.11565172
C       -0.74733604       2.93068586       5.48380159       60      -0.02932636       0.02944385      -0.00017492
C        7.54511218       5.61593620       7.32839128       61      -0.04998207      -0.06941018      -0.03628427
C       -0.43598950       8.44032388       1.79567260       62       0.08045347       0.00819600      -0.05806956
C        7.23484607       0.10663267      11.01720311       63      -0.25625980      -0.04192650       0.10742189
C        0.17591726       7.24615698       2.48734165       64      -0.05298286      -0.01662878       0.07967964
C        6.62080072       1.30043100      10.32416454       65       0.07920267      -0.00059958      -0.00728354
C        0.19211144       7.08635502       3.88313913       66      -0.08345541       0.10340524      -0.01596880
C        6.60387676       1.46079623       8.93053286       67       0.07643133      -0.11639112      -0.10695465
C        0.81231900       5.98655038       4.47835730       68       0.07038599      -0.10627448      -0.04613924
C        5.98184622       2.55995270       8.33285869       69      -0.01142574       0.05016267       0.09344584
C        1.41062401       5.01497999       3.67300271       70      -0.08580838       0.01039019      -0.01665379
C        5.38595709       3.53119107       9.13927675       71       0.04322748       0.03638902      -0.05919889
C        1.39629309       5.14495974       2.28219268       72       0.01391335      -0.05332987      -0.00103560
C        5.40005343       3.40055378      10.52887134       73      -0.00604942       0.05731530       0.05061944
C        0.79540666       6.25967787       1.70176379       74      -0.01481455       0.02981019      -0.00362596
C        6.00220808       2.28713493      11.10991778       75       0.00274093      -0.03904855       0.03461818
C        5.48790036      -0.44304548       2.82159898       76      -0.05640829      -0.02414335       0.11974054
C        1.30911358       8.98962581       9.99086094       77      -0.00416890      -0.03261641      -0.12879577
C        5.29301741       9.73302957       4.08909067       78       0.02663822       0.00822762      -0.04206450
C        1.50306266      -1.18882831       8.72373664       79       0.05435255       0.09358052      -0.00342356
C        4.31241062       8.77280992       4.35358207       80       0.01813509      -0.01183072      -0.03324105
C        2.48405220      -0.22650693       8.45894347       81      -0.05012751      -0.02633466       0.00099039
C        3.43501134       8.44833393       3.31722527       82      -0.00927597      -0.00167459      -0.03610630
C        3.36247037       0.09694641       9.49433632       83      -0.00613983       0.00854088       0.01380184
C        3.55746374       9.06412068       2.07622482       84      -0.04642364      -0.01890833       0.09270766
C        3.23951658      -0.51898483      10.73442438       85       0.06872758       0.02332503      -0.01962358
C        4.23134218       8.09586163       5.69302670       86       0.04130821      -0.00549124       0.05058916
C        2.56538906       0.45057665       7.11804527       87      -0.01074103      -0.03282733       0.03297170
C        4.47751390       2.55026465       1.47242159       88       0.08094215      -0.16260672      -0.12303931
C        2.32217370       5.99818740      11.33941587       89      -0.25637224      -0.00441688       0.08809663
C        5.11844261       3.79362121       2.03317735       90      -0.06790486       0.01166476       0.06956926
C        1.67827803       4.75371040      10.77864537       91       0.05159048      -0.07491139      -0.00910655
C        5.09947565       4.13015991       3.39533269       92      -0.06233615      -0.06232437       0.10819751
C        1.69603699       4.41541919       9.41816486       93       0.06258997       0.05973674      -0.17026781
C        5.69494865       5.30566215       3.85807266       94       0.02054184       0.08112633      -0.00021879
C        1.10021433       3.23995014       8.95293743       95       0.00326699      -0.04738927       0.06249641
C        6.31499633       6.17263269       2.95694311       96      -0.05210413      -0.00476983      -0.00603822
C        0.48199387       2.37329659       9.85457267       97       0.01400921      -0.04545709      -0.02668409
C        6.35915449       5.84582955       1.59928023       98      -0.01765022      -0.03687561      -0.01875708
C        0.43681039       2.70004595      11.21201160       99       0.04176721       0.04566339       0.03887513
C        5.77894578       4.65916744       1.15063018      100       0.07605521       0.06731772      -0.04058225
C        1.01835165       3.88499019      11.66240622      101      -0.04232241       0.00684510      -0.04829745
Br       4.38922978       2.91581001       4.69509498      102      -0.03149789      -0.05789517      -0.00181736
Br       2.40741582       5.62781615       8.11641288      103       0.03279795       0.06510898       0.00079264
Br      -0.51547565       8.44189129       5.03800422      104      -0.02793759       0.00303149       0.08219802
Br       7.31118148       0.10200915       7.77368087      105       0.01274947       0.03175993      -0.05585156
N       -0.18009575       0.96741410       1.71332848      106      -0.06502572       0.13207182       0.00735879
N        6.97729464       7.57743005      11.09974379      107      -0.02686583      -0.06673623      -0.09064488
N        4.52368241       9.96887934       1.83318407      108       0.00916590      -0.09985996       0.10180275
N        2.27238818      -1.42265242      10.97847536      109       0.03360095       0.10947532      -0.05932024
O        0.35564717       9.02841996       0.97723795      110      -0.07523628       0.16919491      -0.08703439
O        6.43941362      -0.48218440      11.83563537      111       0.16848774      -0.12165615       0.02298465
O        5.27516337       1.80622597       0.79634522      112      -0.11485732      -0.03428119      -0.03790429
O        1.52231772       6.73771096      12.01453498      113       0.08028229       0.13471568       0.10240875
O        8.01556031       8.74118783       2.04403156      114       0.05737054      -0.06111003      -0.03954073
O       -1.21930976      -0.19601865      10.76801975      115       0.01437864       0.05517191       0.02667376
O        3.24653580       2.36144214       1.67742153      116       0.09548442       0.10812195      -0.03211083
O        3.54997799       6.18394312      11.13473376      117       0.09101933      -0.05924474       0.00335188
O       -0.31664931      -1.70630544      12.78052651      118       0.08789527       0.02937615       0.00883119
O        7.11530217      10.25313523       0.02750539      119      -0.07401832       0.01117647       0.05302918
120
Lattice="9.65027177 0.0 0.0 -0.11121764535837397 10.745036760384254 0.0 -2.7402099635058077 -2.200731384707416 12.813707109897463" Properties=species:S:1:pos:R:3:spacegroup_kinds:I:1:forces:R:3 spacegroup="P 1" unit_cell=conventional occupancy="_JSON {\"0\": {\"Cu\": 1}, \"1\": {\"Cu\": 1}, \"2\": {\"H\": 1}, \"3\": {\"H\": 1}, \"4\": {\"H\": 1}, \"5\": {\"H\": 1}, \"6\": {\"H\": 1}, \"7\": {\"H\": 1}, \"8\": {\"H\": 1}, \"9\": {\"H\": 1}, \"10\": {\"H\": 1}, \"11\": {\"H\": 1}, \"12\": {\"H\": 1}, \"13\": {\"H\": 1}, \"14\": {\"H\": 1}, \"15\": {\"H\": 1}, \"16\": {\"H\": 1}, \"17\": {\"H\": 1}, \"18\": {\"H\": 1}, \"19\": {\"H\": 1}, \"20\": {\"H\": 1}, \"21\": {\"H\": 1}, \"22\": {\"H\": 1}, \"23\": {\"H\": 1}, \"24\": {\"H\": 1}, \"25\": {\"H\": 1}, \"26\": {\"H\": 1}, \"27\": {\"H\": 1}, \"28\": {\"H\": 1}, \"29\": {\"H\": 1}, \"30\": {\"H\": 1}, \"31\": {\"H\": 1}, \"32\": {\"H\": 1}, \"33\": {\"H\": 1}, \"34\": {\"H\": 1}, \"35\": {\"H\": 1}, \"36\": {\"H\": 1}, \"37\": {\"H\": 1}, \"38\": {\"H\": 1}, \"39\": {\"H\": 1}, \"40\": {\"H\": 1}, \"41\": {\"H\": 1}, \"42\": {\"H\": 1}, \"43\": {\"H\": 1}, \"44\": {\"H\": 1}, \"45\": {\"H\": 1}, \"46\": {\"H\": 1}, \"47\": {\"H\": 1}, \"48\": {\"H\": 1}, \"49\": {\"H\": 1}, \"50\": {\"C\": 1}, \"51\": {\"C\": 1}, \"52\": {\"C\": 1}, \"53\": {\"C\": 1}, \"54\": {\"C\": 1}, \"55\": {\"C\": 1}, \"56\": {\"C\": 1}, \"57\": {\"C\": 1}, \"58\": {\"C\": 1}, \"59\": {\"C\": 1}, \"60\": {\"C\": 1}, \"61\": {\"C\": 1}, \"62\": {\"C\": 1}, \"63\": {\"C\": 1}, \"64\": {\"C\": 1}, \"65\": {\"C\": 1}, \"66\": {\"C\": 1}, \"67\": {\"C\": 1}, \"68\": {\"C\": 1}, \"69\": {\"C\": 1}, \"70\": {\"C\": 1}, \"71\": {\"C\": 1}, \"72\": {\"C\": 1}, \"73\": {\"C\": 1}, \"74\": {\"C\": 1}, \"75\": {\"C\": 1}, \"76\": {\"C\": 1}, \"77\": {\"C\": 1}, \"78\": {\"C\": 1}, \"79\": {\"C\": 1}, \"80\": {\"C\": 1}, \"81\": {\"C\": 1}, \"82\": {\"C\": 1}, \"83\": {\"C\": 1}, \"84\": {\"C\": 1}, \"85\": {\"C\": 1}, \"86\": {\"C\": 1}, \"87\": {\"C\": 1}, \"88\": {\"C\": 1}, \"89\": {\"C\": 1}, \"90\": {\"C\": 1}, \"91\": {\"C\": 1}, \"92\": {\"C\": 1}, \"93\": {\"C\": 1}, \"94\": {\"C\": 1}, \"95\": {\"C\": 1}, \"96\": {\"C\": 1}, \"97\": {\"C\": 1}, \"98\": {\"C\": 1}, \"99\": {\"C\": 1}, \"100\": {\"C\": 1}, \"101\": {\"C\": 1}, \"102\": {\"Br\": 1}, \"103\": {\"Br\": 1}, \"104\": {\"Br\": 1}, \"105\": {\"Br\": 1}, \"106\": {\"N\": 1}, \"107\": {\"N\": 1}, \"108\": {\"N\": 1}, \"109\": {\"N\": 1}, \"110\": {\"O\": 1}, \"111\": {\"O\": 1}, \"112\": {\"O\": 1}, \"113\": {\"O\": 1}, \"114\": {\"O\": 1}, \"115\": {\"O\": 1}, \"116\": {\"O\": 1}, \"117\": {\"O\": 1}, \"118\": {\"O\": 1}, \"119\": {\"O\": 1}}" energy=-770.127197265625 free_energy=-770.127197265625 stress="-0.00024101792951114476 0.0004745160404127091 -0.0005257389857433736 0.0004745160404127091 0.0009810056071728468 7.883995749580208e-06 -0.0005257389857433736 7.883995749580208e-06 -0.0022208818700164557" pbc="T T T"
Cu      -0.00105743       0.00128489      -0.00053628        0       0.00338010       0.00432138      -0.01723757
Cu       2.08414812      -2.19990928      12.81331950        1      -0.00379780       0.00208618      -0.02810106
H        7.74928972       1.92868969       1.05312137        2      -0.01383757      -0.00053888       0.03872376
H       -0.95567773       6.62114744      11.75488024        3       0.06903164      -0.01783430       0.01175713
H        7.39664432       3.14301788       3.20198157        4      -0.00601842      -0.05060365       0.04533748
H       -0.60413020       5.40224872       9.60995320        5       0.03359021       0.03873646      -0.05471591
H        1.29590224       1.21522636       4.71481023        6      -0.00782245       0.00804386       0.00670406
H        5.49993562       7.33127728       8.09567148        7      -0.04493353       0.00752308      -0.05304765
H        1.52120693       0.09408805       2.50577236        8       0.08052820       0.01915855       0.00252497
H        5.27407997       8.45369285      10.30365942        9      -0.06189002      -0.01816058       0.00310763
H        0.18990070       3.34070368       5.88501781       10       0.00175594      -0.00779120       0.01286891
H        6.60550351       5.20670256       6.92348619       11      -0.00738724       0.01077970      -0.02028923
H       -1.14052285       2.21390610       6.21966322       12      -0.00075442       0.04133705       0.04638024
H        7.93740159       6.33311733       6.58964254       13      -0.00116729      -0.02802868      -0.05235320
H        8.17916387       3.75097731       5.38917087       14      -0.02131001       0.03520401       0.05972997
H       -1.38461932       4.79678191       7.42135690       15       0.00971919      -0.02334340      -0.06689274
H        0.84180679       5.90375460       5.56285162       16      -0.01041875       0.01780637      -0.03198534
H        5.95202285       2.64317345       7.24508618       17       0.00925117      -0.02000768       0.06203760
H        1.90548584       4.16164555       4.12739107       18       0.00017316       0.02803685      -0.02220978
H        4.88896289       4.38591903       8.68132807       19      -0.01899859       0.00185574       0.01058696
H        1.86937231       4.37283135       1.67244829       20      -0.01156203      -0.00846127       0.00139488
H        4.92421417       4.17404596      11.13630064       21      -0.00066042       0.02904337       0.01254823
H        0.80068299       6.39424511       0.61757464       22      -0.02279994      -0.03084289       0.00274926
H        5.99372009       2.15192420      12.19208152       23       0.01879434       0.04792197       0.00955571
H        6.25172667       0.28922368       2.57356929       24       0.05844177       0.00377429       0.01090253
H        0.54135941       8.25981648      10.23488537       25      -0.07747896      -0.02768741       0.00175820
H        6.12182664      -0.71090796       4.85179576       26      -0.00655633      -0.02177337       0.00811030
H        0.67245278       9.25686046       7.95852605       27       0.02240239       0.03768902      -0.00394860
H        2.65262623       7.70705627       3.45955717       28      -0.01438644       0.00837898       0.03225325
H        4.14227568       0.83937572       9.34900033       29       0.01851448      -0.00755763      -0.02487284
H        2.87302217       8.84946673       1.25501863       30      -0.01586387       0.00130159       0.00713767
H        3.92033762      -0.30254094      11.55345822       31       0.04420855       0.00156393       0.02340454
H        4.11932836       8.82639122       6.50958056       32      -0.03485572      -0.04342381       0.04459982
H        2.67542171      -0.27905616       6.30006374       33       0.02884001       0.05585013      -0.03290790
H        5.15951016       7.54189090       5.89132841       34      -0.00741208      -0.03080475       0.06323332
H        1.63585153       1.00495837       6.91895159       35      -0.04271214       0.06793672      -0.07887810
H        3.39181217       7.39035604       5.73684898       36      -0.00405260       0.00229555       0.04017516
H        3.40372274       1.15593918       7.07354284       37      -0.00797321       0.00113867      -0.04270319
H        5.67729576       5.53011323       4.92225930       38      -0.01209907       0.03133931       0.01033005
H        1.11589234       3.01687849       7.88648322       39       0.01620423      -0.00950953       0.03776987
H        6.77652707       7.10138720       3.29324904       40       0.01137682      -0.00536995      -0.03999566
H        0.01938301       1.44553583       9.51497192       41      -0.01696409      -0.00404621       0.03166754
H        6.84942887       6.52458243       0.89902610       42      -0.00442448       0.00244237      -0.00303299
H       -0.05388036       2.02248685      11.91184778       43       0.01050518       0.00062469      -0.01480656
H        5.81982511       4.38777903       0.09394587       44      -0.02089634       0.04147471       0.01632448
H        0.97668875       4.15889042      12.71553636       45       0.01478430      -0.03964224       0.00079019
H       -0.55790929      -1.16453298      11.97112342       46       0.02547418      -0.00689672       0.09289674
H        7.35957315       9.71649813       0.83141535       47      -0.03955948      -0.00804218      -0.08465411
H        2.64324464       1.18752324       0.65535909       48      -0.02580978      -0.04989873      -0.07799657
H        4.15684815       7.36353528      12.14847365       49       0.00965990      -0.00258218       0.04122141
C        8.43542141       1.81145343       1.89168425       50       0.00919151       0.02784401      -0.04745901
C       -1.63993203       6.73785702      10.91751390       51       0.02885750      -0.09697494      -0.01380354
C        8.24171964       2.46776780       3.09857973       52      -0.05008720      -0.00217290       0.00494198
C       -1.44629387       6.08002587       9.71082844       53      -0.01154482       0.02118374      -0.02805148
C       -0.52601545       2.26321117       4.15879206       54       0.05486226       0.07979569       0.05011507
C        7.32008672       6.28317085       8.64993458       55      -0.02231978      -0.05383876       0.00990108
C        0.55131834       1.39975698       3.94255135       56       0.03576459       0.01263005       0.09849191
C        6.24307830       7.14719511       8.86640635       57       0.02780761       0.01015358       0.01116100
C        0.69748939       0.77214007       2.71405062       58       0.00064726      -0.03097080       0.04366475
C        6.09960335       7.77737983      10.09546465       59       0.00421575      -0.02247684      -0.05574718
C       -0.74908667       2.93262913       5.48278302       60       0.00989158      -0.01823288       0.00808398
C        7.54366077       5.61588286       7.32600918       61       0.01347958      -0.03910220      -0.00111899
C       -0.43474066       8.44244333       1.79368904       62      -0.03747791       0.00760800      -0.02472344
C        7.23216937       0.10613156      11.01761804       63      -0.12707824      -0.01613545       0.05307674
C        0.17316745       7.24689787       2.48773192       64      -0.02689110       0.03788128      -0.03868648
C        6.61995533       1.30078992      10.32359436       65       0.06839987      -0.02137564      -0.03896278
C        0.18938606       7.08889523       3.88115198       66      -0.01682320      -0.01940233       0.10416230
C        6.60426501       1.45964297       8.92803293       67       0.02136804      -0.02962487      -0.02844925
C        0.81239882       5.98562100       4.47615429       68      -0.04250923       0.05836007      -0.05098647
C        5.98069756       2.56133034       8.33274048       69       0.03219820      -0.01379317       0.03402786
C        1.40810796       5.01565550       3.67102727       70      -0.00753045      -0.09213284       0.02344429
C        5.38536805       3.53295057       9.13788917       71       0.03825423       0.02101365      -0.00397445
C        1.39450883       5.14528204       2.28105177       72      -0.03840221       0.03104013      -0.04995233
C        5.39871716       3.40223510      10.52806724       73       0.04798864      -0.02021636       0.02604995
C        0.79301061       6.26136890       1.70055585       74       0.01733973      -0.04756343       0.00676435
C        6.00154909       2.28761635      11.10972496       75      -0.02150671       0.00622807      -0.02131367
C        5.48654388      -0.44232955       2.82134152       76      -0.00510730       0.02843052       0.07870574
C        1.30691398       8.98966998       9.98799084       77       0.07784459       0.02908379      -0.07602721
C        5.29208748       9.73450238       4.08790364       78       0.01368325      -0.02688594       0.01109415
C        1.50308766      -1.18609091       8.72152746       79      -0.08572530      -0.03597814      -0.00366531
C        4.31085214       8.77368489       4.35130834       80       0.06841888      -0.02161125       0.07898603
C        2.48297234      -0.22597925       8.45806592       81      -0.01413859       0.04899839      -0.05529598
C        3.43385294       8.44873808       3.31692088       82      -0.00484575       0.02102098      -0.05841158
C        3.36122869       0.09789687       9.49298453       83      -0.02028711      -0.01942450       0.00825883
C        3.55502228       9.06404962       2.07634542       84      -0.05020019      -0.00644962       0.01141754
C        3.23966214      -0.51796711      10.73284359       85       0.05669084       0.03544230      -0.03836900
C        4.23058251       8.09603558       5.69318899       86       0.02933417       0.01891893      -0.01108733
C        2.56310474       0.45207457       7.11644988       87       0.04224349      -0.06685998       0.01302528
C        4.47840223       2.54964434       1.46953274       88      -0.04673855      -0.08169824      -0.03020221
C        2.31931743       5.99885164      11.34011218       89      -0.02132079      -0.00374627       0.01583715
C        5.11692945       3.79448502       2.03288532       90      -0.03709828       0.00301623       0.04646280