106
Lattice="14.43969484 0.0 0.0 -6.210888527526204 13.672717845973098 0.0 -5.117868391465167 -6.001787090348133 13.162613681938538" Properties=species:S:1:pos:R:3:spacegroup_kinds:I:1:forces:R:3 spacegroup="P 1" unit_cell=conventional occupancy="_JSON {\"0\": {\"Zn\": 1}, \"1\": {\"Zn\": 1}, \"2\": {\"Zn\": 1}, \"3\": {\"Zn\": 1}, \"4\": {\"H\": 1}, \"5\": {\"H\": 1}, \"6\": {\"H\": 1}, \"7\": {\"H\": 1}, \"8\": {\"H\": 1}, \"9\": {\"H\": 1}, \"10\": {\"H\": 1}, \"11\": {\"H\": 1}, \"12\": {\"H\": 1}, \"13\": {\"H\": 1}, \"14\": {\"H\": 1}, \"15\": {\"H\": 1}, \"16\": {\"H\": 1}, \"17\": {\"H\": 1}, \"18\": {\"H\": 1}, \"19\": {\"H\": 1}, \"20\": {\"H\": 1}, \"21\": {\"H\": 1}, \"22\": {\"H\": 1}, \"23\": {\"H\": 1}, \"24\": {\"H\": 1}, \"25\": {\"H\": 1}, \"26\": {\"H\": 1}, \"27\": {\"H\": 1}, \"28\": {\"H\": 1}, \"29\": {\"H\": 1}, \"30\": {\"H\": 1}, \"31\": {\"H\": 1}, \"32\": {\"H\": 1}, \"33\": {\"H\": 1}, \"34\": {\"H\": 1}, \"35\": {\"H\": 1}, \"36\": {\"H\": 1}, \"37\": {\"H\": 1}, \"38\": {\"H\": 1}, \"39\": {\"H\": 1}, \"40\": {\"H\": 1}, \"41\": {\"H\": 1}, \"42\": {\"H\": 1}, \"43\": {\"C\": 1}, \"44\": {\"C\": 1}, \"45\": {\"C\": 1}, \"46\": {\"C\": 1}, \"47\": {\"C\": 1}, \"48\": {\"C\": 1}, \"49\": {\"C\": 1}, \"50\": {\"C\": 1}, \"51\": {\"C\": 1}, \"52\": {\"C\": 1}, \"53\": {\"C\": 1}, \"54\": {\"C\": 1}, \"55\": {\"C\": 1}, \"56\": {\"C\": 1}, \"57\": {\"C\": 1}, \"58\": {\"C\": 1}, \"59\": {\"C\": 1}, \"60\": {\"C\": 1}, \"61\": {\"C\": 1}, \"62\": {\"C\": 1}, \"63\": {\"C\": 1}, \"64\": {\"C\": 1}, \"65\": {\"C\": 1}, \"66\": {\"C\": 1}, \"67\": {\"C\": 1}, \"68\": {\"C\": 1}, \"69\": {\"C\": 1}, \"70\": {\"C\": 1}, \"71\": {\"C\": 1}, \"72\": {\"C\": 1}, \"73\": {\"C\": 1}, \"74\": {\"C\": 1}, \"75\": {\"C\": 1}, \"76\": {\"C\": 1}, \"77\": {\"C\": 1}, \"78\": {\"C\": 1}, \"79\": {\"C\": 1}, \"80\": {\"C\": 1}, \"81\": {\"C\": 1}, \"82\": {\"C\": 1}, \"83\": {\"C\": 1}, \"84\": {\"C\": 1}, \"85\": {\"C\": 1}, \"86\": {\"C\": 1}, \"87\": {\"N\": 1}, \"88\": {\"N\": 1}, \"89\": {\"N\": 1}, \"90\": {\"N\": 1}, \"91\": {\"N\": 1}, \"92\": {\"N\": 1}, \"93\": {\"N\": 1}, \"94\": {\"N\": 1}, \"95\": {\"N\": 1}, \"96\": {\"N\": 1}, \"97\": {\"N\": 1}, \"98\": {\"N\": 1}, \"99\": {\"N\": 1}, \"100\": {\"N\": 1}, \"101\": {\"N\": 1}, \"102\": {\"N\": 1}, \"103\": {\"N\": 1}, \"104\": {\"O\": 1}, \"105\": {\"O\": 1}}" energy=-695.138916015625 free_energy=-695.138916015625 stress="-0.0010977372294291854 0.0014533826615661383 -0.0031749082263559103 0.0014533826615661383 0.0016558939823880792 0.001190265524201095 -0.0031749082263559103 0.001190265524201095 -0.0017017391510307789" pbc="T T T"
Zn      -2.57726661       8.37572976       1.04271229        0       0.22120343      -0.55098361       0.12449510
Zn       4.78466022      -0.81813883      13.03456001        1       0.13441314      -0.35878217      -0.40652120
Zn       4.85088016       1.82980458      11.07998849        2      -0.38596669      -0.02990903       0.51825351
Zn      -2.27084405       5.75353623       2.31293345        3      -0.03597364       0.04887263       0.10560948
H       -3.97380071      11.11290257       1.88082815        4       0.97053224       0.89170289       1.31097591
H        7.49726931       5.93504543       1.68210864        5      -0.32140735      -0.17832083      -0.09691496
H        1.67774055       1.82072761      10.15540629        6      -0.39679623       1.46583319      -1.01783538
H       -0.82847191       6.68058085       5.37128294        7       0.07527589      -0.24128859       0.22376700
H        1.57884631      -1.83760001      12.49628220        8       0.14623554       0.29565638      -0.22581117
H       -1.19801538      10.40558250       3.18028418        9       0.16253170      -0.32728478       0.28785416
H       -3.83964520       7.75783594       4.11473035       10      -0.56539649      -0.32406873      -0.53143764
H        2.52800062       3.55483089      12.14196423       11       0.51077205       0.36700141       0.67143232
H       -5.62446954       2.12812076      11.47459133       12       0.01597305       0.12062491       0.04118678
H        6.24254731      -2.90182340      11.13411848       13       0.03025465      -0.89677334       0.34839052
H        4.68485161       3.31815824       7.92901413       14      -0.41732714      -0.26726565      -0.48671743
H       -1.89375094       2.78389196       3.51081468       15      -0.06436315       0.15867041       0.00224949
H       10.03100105       1.92071221       0.11703387       16      -0.91004580      -0.73192441      -1.33717823
H       -6.60537563       5.40243131       9.93498147       17       1.22839773       0.94688070       0.35023746
H        0.10940313       4.38465570       0.45680315       18      -0.13386033       0.26140821      -0.08170643
H        6.21755315       0.60462541       8.65622653       19       0.02227131       0.68430799      -1.07288480
H       -0.91955129       8.04229786       7.36564644       20      -0.19292553       1.10884655       0.33824643
H       -2.25151501       9.16697277       7.12795576       21      -0.31595805       0.27138573       0.03480716
H        4.54408198      -3.49103891       9.10840567       22       0.29889238       0.08362494       0.00142268
H       -0.08947927       9.32431920       9.15227515       23      -0.25631058       0.06940559      -0.05617921
H        1.42203556       8.75671328       6.62239961       24       0.11285587      -0.01599943      -0.11248238
H        8.16614757      -3.31103571       8.26836907       25       0.25882548      -0.07242359      -0.25231400
H        5.85664275      -2.10772521       4.99253577       26      -0.41803396      -0.26146084       0.62130082
H       -2.04175134      11.12872179       5.44381588       27       0.76601756      -0.19252819       0.38425136
H        4.37046327      -1.49260611       7.48798594       28      -0.29867426      -0.10752136       0.35853809
H        5.78991680      -0.71126288       6.84537096       29       0.04544184      -0.73432344       0.26659027
H        1.60243083      10.08719268       5.44262603       30       0.25213578      -0.03750572      -0.70126492
H        8.05295153      -1.97330358       7.06399357       31      -0.32855085      -0.52215683       0.28460857
H       -6.33320668       6.73519704       7.97447983       32      -0.23280600      -0.19335926      -0.35454437
H        6.21413194       5.00242532       6.30154761       33      -1.10149074      -0.78729564      -1.78978384
H       -5.31773464       7.44244686       5.95380865       34      -0.16805945       0.15072674       0.06145150
H        6.85357177       6.18857051       4.38843958       35      -2.23862314      -1.14466202      -0.32609507
H       -0.76818042      -2.01279851      11.75610798       36      -0.12032022       0.31222391      -0.18351406
H       -0.88164867       0.85798537      10.74703118       37      -0.28954595       0.65681529      -0.22413501
H       -3.07267102      -1.92555621      12.27910122       38       0.32171333       0.21269807      -0.26262820
H       -3.14782711       0.83727454      10.92022806       39      -0.26916224      -0.13270821       0.19919661
H        4.76001319      13.20782809       0.25992603       40      -1.13108289       0.14406566      -0.85986221
H       12.68638292       0.24415690       2.70183001       41       0.74541086      -0.36813936       0.63122022
H        5.91829269      11.06554422       0.30445612       42       0.14109845       0.08876414       0.07867515
C       -4.48406266      10.62569585       1.12079006       43      -1.83991885      -2.13614178      -3.09808445
C        8.40042555       6.35944810       2.08735236       44       0.32078335      -0.42302823      -1.05513346
C        1.88987106       0.98096351      10.73017301       45      -0.55698484      -2.84273601       1.99478698
C       -0.95456495       7.46683634       4.64627937       46       0.03012028       0.83196497       0.37373367
C        1.82846407      -0.93304902      11.92614548       47       0.58897191      -0.15744716       0.30115461
C       -1.11879968       9.38321239       3.57506503       48      -0.75156534      -0.08058968      -1.50754976
C       -4.48798997       7.29935948       3.33924720       49       1.18139338       0.00301503      -0.22183207
C        3.36700831       3.78752573      12.84199050       50      -1.85260677      -0.72565889      -1.95249856
C        8.61260837      10.81744945       0.59781222       51       2.02613354      -0.28368706       1.17519724
C        8.63818322       6.82741521       3.37837859       52      -1.33376110       0.28960204       2.17227626
C        0.98369160      -0.07931801      11.21520830       53       0.07533231       1.63833022      -1.01724946
C       -0.79029444       8.89331443       4.82289425       54      -0.13548809      -2.13031220      -0.26782376
C       -5.62541238       1.27691312      12.14612594       55       0.32231218      -0.57928193      -0.19197984
C        6.24201766      -1.93022398      10.70680138       56      -0.37240639       0.04300618       0.53278822
C        5.42835339       3.67837123       8.60699758       57       0.49638471       0.57352382       1.24404585
C       -2.58730155       2.83366197       2.67345401       58       0.39102852      -1.92734671      -0.08579345
C       10.56651285       2.33797611       0.90536416       59       1.48549831       2.30300498       1.77103591
C       -7.39026402       4.77491409       9.63925808       60      -0.92990804      -0.62340289       1.14500952
C       -0.23683831       5.35034619       0.07180532       61       0.92606294      -0.69628257      -0.61229622
C        6.21954267      -0.13870121       9.40115124       62      -0.40809396      -0.92830402       2.78602004
C       -4.77546210       0.13279331      12.16435540       63      -1.13363624       0.23661903       1.11950576
C        6.28693898      -1.55760521       9.39475693       64       0.82237136       0.54836673      -2.38339520
C        6.38333852       4.74317147       8.40547073       65      -1.05008340      -1.67851865      -0.61025095
C       11.42104017       1.73973291       1.86368638       66       0.01264587      -0.49826667       0.07006128
C       -1.17616700       9.15351588       7.30226718       67       0.51266563      -2.22826052      -0.70644331
C        5.45051760      -3.73009868       8.52324526       68      -0.26375613      -1.00305510       0.95496446
C        1.07295353       9.74760238       6.31317922       69      -0.61995691       0.43120188       1.45655429
C        5.23256465      -2.56269652       5.81383803       70       0.07524646       1.09210086      -0.71377331
C       -0.46911872       9.66536988       6.04040038       71       0.41374755       1.33765602       0.54466510
C        6.20624709      -2.47681019       8.16163670       72      -0.08522318       1.28440309      -0.79272151
C        7.54694687      -2.88355990       7.46882244       73      -0.07390533       0.16529742       0.12529230
C        5.36602158      -1.71469033       7.10979616       74       0.04553187       0.42866114      -1.15305328
C       -6.80468137       6.38539389       7.03641804       75      -1.24362504      -1.17835784       1.62598252
C        6.66911443       5.36619725       7.15716666       76       2.25301886       2.15367556       1.68276072
C       -6.27423015       6.91571923       5.85285501       77       0.80219299      -0.02935768      -1.00456583
C        7.75498637       6.64469854       4.58486311       78       2.98705959       1.27937365      -1.40331256
C       -1.26190022      -1.06740179      11.45627615       79       0.00043511      -1.88675547       1.01798570
C       -0.45656950      -0.06324061      11.09806675       80       1.25411749       0.61002505      -0.40334934
C       -2.65235076      -1.05511734      11.74297495       81      -1.29734385       0.44902158       0.14466693
C       -3.52263231       0.00434107      11.54271729       82       1.48061073      -0.44569841      -0.59403372
C        5.54173197      13.11207447       0.95875321       83       2.26817870      -0.50526911       1.71912432
C       11.98692205       0.39259266       1.91441707       84      -1.33707213       0.81377816      -1.23780298
C        6.40652889      11.92148152       0.79481967       85      -1.40880895       0.55720592      -0.72270167
C        7.74313070      11.86229903       0.96102456       86      -0.30898708       0.95630229       0.50455648
N       -3.96813945       9.54492956       0.44084824       87       0.42692494       1.21413434       1.28724837
N        9.51180906       6.44438100       1.31080392       88      -0.83576018       0.81073463       1.70977116
N        3.11849228       0.73016113      11.19078733       89      -0.37852716      -0.25683808      -0.26184100
N       -1.38470366       7.19699004       3.39953760       90       0.33744764      -0.80853271       1.12765014
N        3.09114076      -0.45247122      11.90794448       91       0.02082832      -0.13164854       0.23124906
N       -1.48339880       8.35377833       2.75095175       92      -0.03576644       2.17840385      -0.90880626
N       -3.95215519       7.01755908       2.11339297       93       0.43081713       0.19747980       0.02873573
N        4.45738694       3.03548200      12.72239315       94       0.21474046       0.08962160       0.43880376
N       -6.56177937       1.13360569      13.07955026       95      -1.13474488       1.45350182       0.19980156
N        6.04384484      -0.86607987      11.47878216       96      -0.15405081       0.97111368       1.16006172
N        5.48344659       3.22764574       9.89027042       97       1.32702136       1.54121101      -1.02145290
N       -3.08923609       3.94943402       2.21450046       98      -0.21914917       1.65782905      -0.31488490
N       10.57771868       3.70968962       1.10353841       99      -0.39400962      -1.98035121      -0.22868641
N       -7.90178818       3.94158572      10.55748175      100      -0.53944063      -0.40188107      -1.13737655
N       -1.29546540       5.96674377       0.58434740      101       0.56776530      -0.33446631      -0.12778355
N        6.02928171       0.26458274      10.72066056      102       0.55802882      -0.92428267      -1.83243275
N        0.21837622      -0.64368079       1.55603353      103       0.73838043       1.22707248      -1.59123933
O        0.61627549      -0.74550482       2.70212178      104       0.12967990      -0.43272811       1.27593184
O        0.46902995       0.33165720       0.80318169      105      -0.69646788      -0.97158033       0.37377495
106
Lattice="14.43969484 0.0 0.0 -6.210888527526204 13.672717845973098 0.0 -5.117868391465167 -6.001787090348133 13.162613681938538" Properties=species:S:1:pos:R:3:spacegroup_kinds:I:1:forces:R:3 spacegroup="P 1" unit_cell=conventional occupancy="_JSON {\"0\": {\"Zn\": 1}, \"1\": {\"Zn\": 1}, \"2\": {\"Zn\": 1}, \"3\": {\"Zn\": 1}, \"4\": {\"H\": 1}, \"5\": {\"H\": 1}, \"6\": {\"H\": 1}, \"7\": {\"H\": 1}, \"8\": {\"H\": 1}, \"9\": {\"H\": 1}, \"10\": {\"H\": 1}, \"11\": {\"H\": 1}, \"12\": {\"H\": 1}, \"13\": {\"H\": 1}, \"14\": {\"H\": 1}, \"15\": {\"H\": 1}, \"16\": {\"H\": 1}, \"17\": {\"H\": 1}, \"18\": {\"H\": 1}, \"19\": {\"H\": 1}, \"20\": {\"H\": 1}, \"21\": {\"H\": 1}, \"22\": {\"H\": 1}, \"23\": {\"H\": 1}, \"24\": {\"H\": 1}, \"25\": {\"H\": 1}, \"26\": {\"H\": 1}, \"27\": {\"H\": 1}, \"28\": {\"H\": 1}, \"29\": {\"H\": 1}, \"30\": {\"H\": 1}, \"31\": {\"H\": 1}, \"32\": {\"H\": 1}, \"33\": {\"H\": 1}, \"34\": {\"H\": 1}, \"35\": {\"H\": 1}, \"36\": {\"H\": 1}, \"37\": {\"H\": 1}, \"38\": {\"H\": 1}, \"39\": {\"H\": 1}, \"40\": {\"H\": 1}, \"41\": {\"H\": 1}, \"42\": {\"H\": 1}, \"43\": {\"C\": 1}, \"44\": {\"C\": 1}, \"45\": {\"C\": 1}, \"46\": {\"C\": 1}, \"47\": {\"C\": 1}, \"48\": {\"C\": 1}, \"49\": {\"C\": 1}, \"50\": {\"C\": 1}, \"51\": {\"C\": 1}, \"52\": {\"C\": 1}, \"53\": {\"C\": 1}, \"54\": {\"C\": 1}, \"55\": {\"C\": 1}, \"56\": {\"C\": 1}, \"57\": {\"C\": 1}, \"58\": {\"C\": 1}, \"59\": {\"C\": 1}, \"60\": {\"C\": 1}, \"61\": {\"C\": 1}, \"62\": {\"C\": 1}, \"63\": {\"C\": 1}, \"64\": {\"C\": 1}, \"65\": {\"C\": 1}, \"66\": {\"C\": 1}, \"67\": {\"C\": 1}, \"68\": {\"C\": 1}, \"69\": {\"C\": 1}, \"70\": {\"C\": 1}, \"71\": {\"C\": 1}, \"72\": {\"C\": 1}, \"73\": {\"C\": 1}, \"74\": {\"C\": 1}, \"75\": {\"C\": 1}, \"76\": {\"C\": 1}, \"77\": {\"C\": 1}, \"78\": {\"C\": 1}, \"79\": {\"C\": 1}, \"80\": {\"C\": 1}, \"81\": {\"C\": 1}, \"82\": {\"C\": 1}, \"83\": {\"C\": 1}, \"84\": {\"C\": 1}, \"85\": {\"C\": 1}, \"86\": {\"C\": 1}, \"87\": {\"N\": 1}, \"88\": {\"N\": 1}, \"89\": {\"N\": 1}, \"90\": {\"N\": 1}, \"91\": {\"N\": 1}, \"92\": {\"N\": 1}, \"93\": {\"N\": 1}, \"94\": {\"N\": 1}, \"95\": {\"N\": 1}, \"96\": {\"N\": 1}, \"97\": {\"N\": 1}, \"98\": {\"N\": 1}, \"99\": {\"N\": 1}, \"100\": {\"N\": 1}, \"101\": {\"N\": 1}, \"102\": {\"N\": 1}, \"103\": {\"N\": 1}, \"104\": {\"O\": 1}, \"105\": {\"O\": 1}}" energy=-693.9512329101562 free_energy=-693.9512329101562 stress="-0.0023201568983495235 0.0016594735207036138 -0.0015750706661492586 0.0016594735207036138 -0.0011221483582630754 0.0020785843953490257 -0.0015750706661492586 0.0020785843953490257 -0.00211725034750998" pbc="T T T"
Zn      -2.55246625       8.39308275       1.04590961        0       0.44517446      -0.77446115       0.25834167
Zn       4.76002223      -0.80397630      13.03284913        1       0.20780680      -0.38371885      -0.30365255
Zn       4.86220270       1.85878338      11.07854935        2      -0.35192072      -0.51570570       0.44547868
Zn      -2.29845687       5.72618827       2.30023801        3       0.44578564       0.74467903       0.10063035
H       -3.96712516      11.10988274       1.85392300        4       1.42398691       1.54456604       2.12119484
H        7.51804902       5.91154058       1.65287716        5      -0.01929016       0.00656888       0.24712494
H        1.65494814       1.80552941      10.18188279        6      -0.70300603       2.22965002      -1.56631303
H       -0.82692226       6.70638895       5.36600473        7       0.12768936      -0.47872353       0.34853935
H        1.59888084      -1.85699719      12.49452690        8       0.09144384       0.11492398      -0.05820963
H       -1.22038860      10.39110273       3.20848487        9       0.15683973       0.84566772      -0.19168644
H       -3.84719022       7.73621942       4.11680606       10      -0.45147592      -0.34170276      -0.61125338
H        2.55383198       3.54053262      12.12307991       11       0.91814053       0.57476968       1.27818263
H       -5.63223626       2.14801872      11.45446342       12       0.15672627      -1.07057476       0.94217020
H        6.23601119      -2.89760538      11.15956510       13       0.09368563      -0.24066958       0.10621618
H        4.67587209       3.30297472       7.95863578       14      -0.28548759      -0.16349135      -0.37036106
H       -1.87641819       2.76687767       3.53919930       15      -0.75393891       0.47944716      -0.70550084
H       10.01673821       1.90461704       0.11930807       16      -0.50956982      -0.31861046      -0.72943324
H       -6.60035298       5.39887256       9.93345993       17       1.01346624       0.70998877       0.31311032
H        0.08232219       4.39720532       0.45437503       18       0.14959410       0.14902863      -0.07929314
H        6.24216207       0.57721492       8.65780295       19       0.03952099       1.78425169      -2.19420719
H       -0.90526367       8.04887394       7.39221715       20      -0.16755857       1.06242192       0.22629674
H       -2.25801781       9.17053858       7.10185445       21       0.64632940       0.18647212       0.31835160
H        4.52604876      -3.51108016       9.10545438       22       0.05603709       0.25705525       0.09224947
H       -0.11011101       9.33009353       9.17377341       23      -0.34288144      -0.00087159      -0.11908647
H        1.40729095       8.76898186       6.64349528       24       0.40044308      -0.72602129      -0.11162577
H        8.17402046      -3.32566638       8.27187413       25       0.16943367       0.12176330      -0.37318206
H        5.88498265      -2.13090069       4.99075177       26      -0.38592792       0.18349117       0.20466056
H       -2.04231304      11.10768946       5.46900831       27       0.41538557       0.02606744      -0.05054472
H        4.38963848      -1.46842261       7.46682283       28      -1.15065002      -0.18821087       0.79086912
H        5.76382459      -0.71596912       6.84138795       29       0.27267349      -0.85007155       0.46829486
H        1.59337523      10.09551491       5.42489408       30       0.27304110      -0.25691903      -0.58134234
H        8.04857844      -1.95937510       7.07477641       31      -0.30940679      -0.44435042       0.31540790
H       -6.35154860       6.75037068       7.99384670       32      -0.56340158      -0.32844448      -1.31933200
H        6.19298361       5.00338311       6.27284484       33      -0.24524401      -0.32114086      -0.22772768
H       -5.30358825       7.42800871       5.97449948       34      -0.69859618      -0.16290179       0.01740223
H        6.83428025       6.21077101       4.36881164       35      -1.05885828      -0.52218950      -0.07155760
H       -0.78685906      -2.01587720      11.78602165       36       0.10949543       0.08814829      -0.06850990
H       -0.90952111       0.88507974      10.71991499       37       0.59098899      -0.93191516       0.39883265
H       -3.04687718      -1.93806704      12.30244146       38       0.42583346       1.08861518      -0.71563822
H       -3.14422524       0.85845062      10.90699419       39      -0.45375407      -0.56226039       0.40996715
H        4.77282123      13.22869694       0.26912005       40      -1.62899661       0.14044909      -1.28503501
H       12.70440740       0.26797426       2.70124747       41       0.68632358      -0.59419298       0.40321064
H        5.92400129      11.04402926       0.32412967       42       0.24863355       0.60567522       0.27765560
C       -4.49192364      10.65455075       1.11556510       43      -0.85741866      -3.84722948      -3.75802732
C        8.42034567       6.33825493       2.09431388       44      -1.43293619      -0.26955321      -0.82584435
C        1.86743355       0.98775224      10.75070285       45       0.57295382      -3.45743322       2.17044735
C       -0.93232105       7.47134561       4.62540823       46      -0.35566029       0.72237408       1.02018940
C        1.83665440      -0.94919121      11.94200805       47       0.18312009       0.74899566      -0.44880408
C       -1.09493926       9.40289016       3.57704893       48      -1.21431231      -1.59912395      -1.32123756
C       -4.47083098       7.27834583       3.31950567       49       0.71823609       0.56036681       1.04420984
C        3.39399941       3.77447156      12.87027443       50      -3.04401684      -1.58069468      -3.58842611
C        8.63805772      10.80392803       0.59099579       51       0.48349968       1.54953098       1.95913064
C        8.63882274       6.84872541       3.37129387       52      -1.11419082      -0.08297986       2.51332331
C        1.00269784      -0.08184927      11.21193181       53      -0.44393563       1.29382157      -0.60370517
C       -0.81078333       8.88748683       4.81029116       54       0.75404185      -1.34162796       1.00265610
C       -5.59924269       1.26250048      12.16355632       55      -0.59179562       1.38746941      -1.52869689
C        6.26047596      -1.90921623      10.72524617       56      -0.56232131      -1.59265578       0.51042211
C        5.42546843       3.70007424       8.61695492       57      -0.05785340      -0.14666414       1.47975314
C       -2.60981860       2.86113781       2.69271172       58       1.99079299      -3.69706297       0.93290913
C       10.56377169       2.35596737       0.90814844       59       1.78008151       0.06383432       1.96709037
C       -7.38510282       4.74981538       9.65621270       60      -0.84637934       0.30702537       0.55624914
C       -0.20880805       5.37522876       0.06769909       61       0.30447996      -1.55250883       0.33255213
C        6.19404205      -0.14395616       9.37348898       62      -0.14451285      -2.08800364       4.16667557
C       -4.76848571       0.12981190      12.16975967       63      -0.45590046       0.34421009       0.60779411
C        6.28544086      -1.54845400       9.42018928       64       0.85063881      -0.49863419      -3.98135877
C        6.35637905       4.75094812       8.40226408       65       0.12092018      -1.66319275       0.72750831
C       11.44769721       1.72197394       1.89211699       66      -1.18571568       0.95838183      -0.90678549
C       -1.15244839       9.16000161       7.31895939       67      -1.00720215      -2.56559134      -1.78409731
C        5.42647982      -3.74055923       8.52499721       68       0.62182009      -0.77187979       1.52795792
C        1.06340415       9.71844341       6.28361867       69      -0.38897514       2.26431751       2.14131403
C        5.22921660      -2.53416536       5.78489546       70       0.53045642      -0.24986976       0.89375865
C       -0.46052967       9.67037168       6.04439075       71      -0.06464413       1.00978708      -0.10288477
C        6.20377549      -2.50668257       8.16734076       72      -0.24946854       2.36524200      -0.20243379
C        7.54760979      -2.86174411       7.49006338       73      -0.18113941      -1.11461961      -0.57283723
C        5.36222869      -1.73040703       7.12739157       74       0.83866405       0.83263755      -2.21560097
C       -6.82294938       6.40428979       7.00638408       75      -1.31583166      -2.01365495       4.52890873
C        6.69087127       5.34481485       7.17226570       76       0.98043901       2.14136887      -0.82582903
C       -6.27960291       6.89113573       5.86165576       77       2.22491074       1.22787380      -2.13914609
C        7.77120945       6.66057132       4.58462402       78       1.47243178       0.45787287      -2.09651089
C       -1.23838473      -1.06529315      11.47797545       79      -0.83219886      -1.46272254       0.80340624
C       -0.43122148      -0.07385374      11.10207188       80       0.14386123       2.11410165      -1.02161288
C       -2.65478551      -1.02637063      11.73785185       81      -0.36889708      -1.26489484       0.69737053
C       -3.52227907      -0.00283054      11.52159488       82       1.24397993       0.62459874      -0.76344144
C        5.55167807      13.10573303       0.94402568       83       2.15691900       0.14254357       2.21519279
C       12.00477992       0.38165791       1.90061166       84      -1.02765679       1.34090340      -0.45971340
C        6.39109540      11.94383273       0.80249785       85      -0.52387881      -1.03728914      -1.24734926
C        7.73838605      11.87310268       0.95446539       86       0.21808869       0.05994931       0.12605709
N       -3.94105812       9.52750764       0.46609914       87      -0.92932540       1.96591997       0.76974583
N        9.48643708       6.46879303       1.32175679       88       0.70154524       0.17129348       0.44995236
N        3.12664481       0.74267191      11.17283120       89      -1.31670308      -0.60307819       0.15850627
N       -1.41342722       7.21370054       3.40541390       90       0.58320057      -1.67912483       0.95715272
N        3.06775012      -0.43657520      11.90979358       91       1.47562253      -0.22753651       0.38149318
N       -1.48649841       8.35601264       2.77764996       92      -0.37654772       3.01362228      -2.24634838
N       -3.94753297       7.01271985       2.11508423       93       0.56920409       0.17080182      -0.72715688
N        4.45657900       3.00794656      12.73390631       94       1.33708632       0.31823921       1.28603625
N       -6.57227815       1.10887453      13.06683533       95      -0.86355370       2.35611677       0.09211966
N        6.01921941      -0.84400129      11.45161257       96      -0.07047467       0.72524941       2.69434381
N        5.50709173       3.25269538       9.91619961       97       0.29848787       1.06167769      -1.49145412
N       -3.06786375       3.97032202       2.22186299       98      -1.43509293       1.07810187      -0.99051738
N       10.55819216       3.67975213       1.10811244       99      -0.11925028       0.04594345      -0.21317957
N       -7.91877394       3.94484316      10.58083471      100       0.13671485      -0.10736290      -1.33265066
N       -1.27752962       5.98093089       0.58708458      101       0.53150284      -1.06225324       0.08959462
N        6.02457517       0.23940169      10.69760742      102      -0.06975654       1.24851871      -1.99031997
N        0.22942304      -0.65930234       1.53220264      103       0.62661844       1.63638079      -0.46368581
O        0.60719929      -0.76574033       2.70124750      104       0.02780932      -0.37198597       0.35207635
O        0.44808725       0.34566404       0.80892115      105      -0.51509589      -1.12639761       0.34306204
106