86
Lattice="6.62680356 0.0 0.0 3.3097315233375513 9.295566025024138 0.0 3.313807240731777 4.283575401645047 14.665149429117422" Properties=species:S:1:pos:R:3:spacegroup_kinds:I:1:forces:R:3 spacegroup="P 1" unit_cell=conventional occupancy="_JSON {\"0\": {\"Zn\": 1}, \"1\": {\"Zn\": 1}, \"2\": {\"H\": 1}, \"3\": {\"H\": 1}, \"4\": {\"H\": 1}, \"5\": {\"H\": 1}, \"6\": {\"H\": 1}, \"7\": {\"H\": 1}, \"8\": {\"H\": 1}, \"9\": {\"H\": 1}, \"10\": {\"H\": 1}, \"11\": {\"H\": 1}, \"12\": {\"H\": 1}, \"13\": {\"H\": 1}, \"14\": {\"H\": 1}, \"15\": {\"H\": 1}, \"16\": {\"H\": 1}, \"17\": {\"H\": 1}, \"18\": {\"H\": 1}, \"19\": {\"H\": 1}, \"20\": {\"H\": 1}, \"21\": {\"H\": 1}, \"22\": {\"H\": 1}, \"23\": {\"H\": 1}, \"24\": {\"H\": 1}, \"25\": {\"H\": 1}, \"26\": {\"H\": 1}, \"27\": {\"H\": 1}, \"28\": {\"H\": 1}, \"29\": {\"H\": 1}, \"30\": {\"C\": 1}, \"31\": {\"C\": 1}, \"32\": {\"C\": 1}, \"33\": {\"C\": 1}, \"34\": {\"C\": 1}, \"35\": {\"C\": 1}, \"36\": {\"C\": 1}, \"37\": {\"C\": 1}, \"38\": {\"C\": 1}, \"39\": {\"C\": 1}, \"40\": {\"C\": 1}, \"41\": {\"C\": 1}, \"42\": {\"C\": 1}, \"43\": {\"C\": 1}, \"44\": {\"C\": 1}, \"45\": {\"C\": 1}, \"46\": {\"C\": 1}, \"47\": {\"C\": 1}, \"48\": {\"C\": 1}, \"49\": {\"C\": 1}, \"50\": {\"C\": 1}, \"51\": {\"C\": 1}, \"52\": {\"C\": 1}, \"53\": {\"C\": 1}, \"54\": {\"C\": 1}, \"55\": {\"C\": 1}, \"56\": {\"C\": 1}, \"57\": {\"C\": 1}, \"58\": {\"C\": 1}, \"59\": {\"C\": 1}, \"60\": {\"C\": 1}, \"61\": {\"C\": 1}, \"62\": {\"C\": 1}, \"63\": {\"C\": 1}, \"64\": {\"C\": 1}, \"65\": {\"C\": 1}, \"66\": {\"C\": 1}, \"67\": {\"C\": 1}, \"68\": {\"C\": 1}, \"69\": {\"C\": 1}, \"70\": {\"N\": 1}, \"71\": {\"N\": 1}, \"72\": {\"N\": 1}, \"73\": {\"N\": 1}, \"74\": {\"N\": 1}, \"75\": {\"N\": 1}, \"76\": {\"N\": 1}, \"77\": {\"N\": 1}, \"78\": {\"O\": 1}, \"79\": {\"O\": 1}, \"80\": {\"O\": 1}, \"81\": {\"O\": 1}, \"82\": {\"O\": 1}, \"83\": {\"O\": 1}, \"84\": {\"O\": 1}, \"85\": {\"O\": 1}}" energy=-590.446044921875 free_energy=-590.446044921875 stress="-0.003104733070358634 0.0023859795182943344 0.010277814231812954 0.0023859795182943344 0.0007745506591163576 0.00482192961499095 0.010277814231812954 0.00482192961499095 0.000793483282905072" pbc="T T T"
Zn       5.88419758       5.52996941      11.00304269        0       0.08647794       0.04274642      -0.02719392
Zn       7.36982691       8.03919587       3.67077068        1      -0.13685924       0.19431868      -0.31827497
H       10.64672044       9.26592970      14.00854330        2       1.38866365       0.24238244      -0.03531852
H        7.35158230      11.13561442       7.93826222        3       0.34945652      -0.02057991       0.21928921
H        2.61820776       4.35377502       0.64693804        4      -0.36338279      -0.38220876      -0.42237115
H        5.89713099       2.42762543       6.70299545        5       0.96545494       0.16025329       0.30053067
H        9.23718084       7.85104877      12.56101903        6       0.00044599       0.13493752       0.36412767
H        2.54598152       3.14427815       9.39205506        7       0.70355344       0.77161276       1.25147474
H        4.11010739       5.64220434       2.06052851        8      -1.43684876       1.14347339       2.37093091
H       10.67856104      10.36949646       5.26196028        9       0.00487497       0.03396519       0.49049437
H        3.54090598       5.22924575       9.23703971       10      -0.20278990       1.15516973       0.07291558
H       10.20192746       5.82111519      12.76183380       11      -0.11768498      -1.59168911       0.05446265
H        9.70984899       8.34918716       5.40048140       12      -0.06778763      -0.44955018       0.13083605
H        3.06602675       7.72277158       1.89287751       13       0.11662173       0.26023483       0.02975013
H        8.55465547       9.23418844       8.51949663       14       0.27888516      -0.42722157       0.32137403
H       11.83138125      11.13524603      13.45724383       15      -0.57742280      -0.30186948       0.39465383
H        4.73908677       4.37833298       6.15475510       16      -0.33283192      -0.00830834      -0.10806866
H        1.37872728       2.42580207       1.22811106       17       0.14004143      -0.13802081      -0.33004564
H        5.56932483       8.55449259      10.82329758       18      -0.45487204      -0.64686662      -0.25514823
H        8.82883527      11.82571904      11.15997440       19      -0.50755143       0.32720172       0.20782225
H        7.65833616       5.07281108       3.86289113       20       0.75186133       0.45896304       0.31427091
H        4.40713617       1.69466465       3.44060250       21      -0.62446219       0.21957400       0.47187525
H        8.31148122       5.48951031       7.74953329       22      -0.53297257       0.04644687      -0.01332790
H        8.24646637       5.54664039      14.29721360       23       0.10549972       0.20637396      -0.12996773
H        5.01198466       8.10135510       6.97329782       24       0.14952525       0.05134383       0.15948299
H        4.94724078       7.95716757       0.42951400       25       0.31315431       0.39049688       0.15087311
H       10.57941693      10.11316428       9.87108213       26      -0.08718251      -0.14084259       0.05072150
H        7.26163927      10.23209704      12.16654644       27      -0.53886414       1.14642298       0.26831907
H        2.67397872       3.43631584       4.87119978       28       0.06179561       0.11077297      -0.27158490
H        6.03374980       3.35958527       2.46546848       29      -0.00950389      -1.22184110      -0.05628140
C        9.65727416       9.10944693      14.32138326       30      -2.75538349       0.06794614       0.75288266
C        6.30624766      11.25629092       7.71348690       31       0.39451277      -0.54422712      -1.30179739
C        3.64693227       4.44379592       0.32845309       32       0.33283335       0.09299275       0.07316996
C        6.98486719       2.34061744       6.96172777       33      -2.40369940       0.78605998       1.36457336
C        9.21324547       7.14318971       8.84636940       34      -3.75753784       2.17482686      -1.69368076
C        9.21286020       3.91184898      13.15926707       35      -3.08742261      -1.70071685       1.61920691
C        4.11797452       6.45009651       5.80075692       36      -1.66617513      -1.07078362       0.42232266
C        4.02900918       9.62334968       1.50217401       37       3.21310449       1.75652337      -1.88871729
C        8.84320776       8.30236136      13.48261751       38      -0.11699987       0.56624615       0.76408184
C        2.19763397       2.75506198       8.48418717       39      -1.89046991      -0.12945390      -0.09844351
C        4.40824604       5.24555806       1.17240923       40       3.26825905      -1.14507663      -3.08939028
C       11.04279583      10.80760839       6.20397565       41       2.72995257      -0.54306197      -1.07556105
C        3.49917178       6.34724686       9.36505829       42       3.94212103      -2.44731069       2.29598427
C        3.57598362       4.67894389      12.64612291       43      -0.63855219       3.86642861       0.53436363
C        9.65999533       7.25189405       5.29389247       44       3.04693031       0.80539352       0.86448312
C        9.72386580       8.81102957       2.01224671       45      -2.67989111      -0.45994064       1.72095871
C        6.53839951       7.32385463      12.94794992       46       3.78711009       0.61520565       0.40649587
C        6.56274939       3.72413491       9.00825305       47      -1.85548019       1.03918803       0.60535872
C        6.73347575       6.23805161       1.72280434       48      -2.02754974      -0.03994817      -1.53668582
C        6.75041633       9.86473494       5.67512881       49      -0.62681311      -2.21806765      -1.76212192
C        7.48826934       8.10143138      13.82275134       50      -0.20965660       0.97968471       0.95449549
C        7.45943918       2.94924368       8.16536242       51       0.99984324      -1.14422369      -1.71400881
C        5.79551804       5.46990957       0.84463342       52      -0.25854191      -2.04214811      -1.70735443
C        5.81663576      10.65335775       6.54484342       53      -0.86483437      -0.10222457      -0.46123570
C        9.27963823       8.56533944       9.02356557       54       1.25593519       0.15261123       0.46969628
C        5.93338783      11.77206752      13.00490774       55       0.23919642       1.94567657       0.16057721
C        3.96218953       4.98793869       5.67143414       56       0.62571061       2.03640676      -0.30414116
C        7.24706690       1.75280952       1.61378597       57      -0.91278303      -0.24667299       1.18613219
C        4.69840942       8.11804243      10.27976576       58       0.29728574       3.52700257       0.29985380
C        7.96060525      12.23976856      11.71080544       59      -0.31471160      -3.94338083       0.79952049
C        8.56618497       5.46350774       4.38654774       60       0.35049701      -2.19487214       0.36135477
C        5.25777239       1.34440799       2.89703305       61       0.01482648       2.04802585      -0.12632465
C        8.08769456       6.51760426       8.07578122       62       2.72224402       0.21905354       0.68749642
C        8.10223922       4.51586092      13.95388059       63       4.38730288       1.94459534      -1.47066629
C        5.15597319       7.06856143       6.65349161       64      -1.34984827      -1.39082098      -1.86621678
C        5.12093044       9.00383893       0.75513152       65       0.39552066       0.07096854      -0.71174926
C       10.39832717       9.04271498       9.74697289       66      -1.18404877      -0.35026318      -0.75397444
C        7.01533765      11.32624232      12.33429003       67       2.46176815      -1.40510881      -2.20741081
C        2.89327289       4.50444820       4.91932220       68      -0.97988534       1.73209929       0.09736419
C        6.15368342       2.24345926       2.33945175       69       1.28929400       1.45952892      -0.64749348
N        4.57962960       6.85213985      10.11513053       70      -1.03997040      -3.33822393      -0.96927714
N        4.57273066       4.20808764      11.93858519       71       1.65773404       1.74572444      -1.23103678
N        8.66497521       6.78871639       4.58322964       72      -1.04477525      -1.22386670      -0.72458774
N        8.68997208       9.37043266       2.73022745       73       0.08936390      -3.82726479      -0.31783769
N        7.07644798       7.20099238       7.71253670       74      -1.03909945      -1.61855221      -1.07043290
N       10.37198095      13.23657335      14.31750406       75      -1.62392294      -3.10178804      -0.16546972
N        6.21124990       6.35137450       6.89559761       76       0.54959899       2.45157456       1.54397655
N        2.92125790       0.34502791       0.37073259       77      -2.82958317       0.49563563       1.63550138
O        5.36158594       7.30537017      13.17533233       78      -3.94250393      -0.07027082       0.74910837
O        5.30040770       3.77155012       8.77971306       79       1.52513075      -0.23355913       0.16205305
O        7.92984391       6.25288512       1.41594463       80       1.25934577       0.23414457       0.63170671
O        7.98743244       9.76285843       5.88233707       81      -1.09692228       0.62072098       0.05489299
O        7.13943780       6.71499971      11.99122158       82       0.30011988      -1.01593494      -1.31416202
O        7.12791411       4.36207723       9.99662396       83      -0.08370379      -0.11925188      -0.06560999
O        6.08874657       6.91966157       2.61165097       84       0.90251750       0.44190341       1.11854374
O        6.13348413       9.14581937       4.65403667       85       0.81741267       2.02315569       2.28260875
86
Lattice="6.62680356 0.0 0.0 3.3097315233375513 9.295566025024138 0.0 3.313807240731777 4.283575401645047 14.665149429117422" Properties=species:S:1:pos:R:3:spacegroup_kinds:I:1:forces:R:3 spacegroup="P 1" unit_cell=conventional occupancy="_JSON {\"0\": {\"Zn\": 1}, \"1\": {\"Zn\": 1}, \"2\": {\"H\": 1}, \"3\": {\"H\": 1}, \"4\": {\"H\": 1}, \"5\": {\"H\": 1}, \"6\": {\"H\": 1}, \"7\": {\"H\": 1}, \"8\": {\"H\": 1}, \"9\": {\"H\": 1}, \"10\": {\"H\": 1}, \"11\": {\"H\": 1}, \"12\": {\"H\": 1}, \"13\": {\"H\": 1}, \"14\": {\"H\": 1}, \"15\": {\"H\": 1}, \"16\": {\"H\": 1}, \"17\": {\"H\": 1}, \"18\": {\"H\": 1}, \"19\": {\"H\": 1}, \"20\": {\"H\": 1}, \"21\": {\"H\": 1}, \"22\": {\"H\": 1}, \"23\": {\"H\": 1}, \"24\": {\"H\": 1}, \"25\": {\"H\": 1}, \"26\": {\"H\": 1}, \"27\": {\"H\": 1}, \"28\": {\"H\": 1}, \"29\": {\"H\": 1}, \"30\": {\"C\": 1}, \"31\": {\"C\": 1}, \"32\": {\"C\": 1}, \"33\": {\"C\": 1}, \"34\": {\"C\": 1}, \"35\": {\"C\": 1}, \"36\": {\"C\": 1}, \"37\": {\"C\": 1}, \"38\": {\"C\": 1}, \"39\": {\"C\": 1}, \"40\": {\"C\": 1}, \"41\": {\"C\": 1}, \"42\": {\"C\": 1}, \"43\": {\"C\": 1}, \"44\": {\"C\": 1}, \"45\": {\"C\": 1}, \"46\": {\"C\": 1}, \"47\": {\"C\": 1}, \"48\": {\"C\": 1}, \"49\": {\"C\": 1}, \"50\": {\"C\": 1}, \"51\": {\"C\": 1}, \"52\": {\"C\": 1}, \"53\": {\"C\": 1}, \"54\": {\"C\": 1}, \"55\": {\"C\": 1}, \"56\": {\"C\": 1}, \"57\": {\"C\": 1}, \"58\": {\"C\": 1}, \"59\": {\"C\": 1}, \"60\": {\"C\": 1}, \"61\": {\"C\": 1}, \"62\": {\"C\": 1}, \"63\": {\"C\": 1}, \"64\": {\"C\": 1}, \"65\": {\"C\": 1}, \"66\": {\"C\": 1}, \"67\": {\"C\": 1}, \"68\": {\"C\": 1}, \"69\": {\"C\": 1}, \"70\": {\"N\": 1}, \"71\": {\"N\": 1}, \"72\": {\"N\": 1}, \"73\": {\"N\": 1}, \"74\": {\"N\": 1}, \"75\": {\"N\": 1}, \"76\": {\"N\": 1}, \"77\": {\"N\": 1}, \"78\": {\"O\": 1}, \"79\": {\"O\": 1}, \"80\": {\"O\": 1}, \"81\": {\"O\": 1}, \"82\": {\"O\": 1}, \"83\": {\"O\": 1}, \"84\": {\"O\": 1}, \"85\": {\"O\": 1}}" energy=-588.023681640625 free_energy=-588.023681640625 stress="0.0022527100518345833 0.0027412106283009052 0.008895304054021835 0.0027412106283009052 -0.004073957912623882 0.003617054084315896 0.008895304054021835 0.003617054084315896 0.0005336605827324092" pbc="T T T"
Zn       5.90442232       5.52366194      10.95782174        0       0.11667972      -0.08895191       0.17779958
Zn       7.41354129       7.99020196       3.65048603        1      -0.91881335       0.95091671       0.12300342
H       10.69225956       9.22980899      14.02474866        2      -0.06205755       0.25595179       0.39049619
H        7.39535515      11.12777662       7.96965960        3      -0.52648860      -0.06162763      -0.03465783
H        2.63190361       4.33250774       0.60240895        4      -0.50653428      -0.22782196      -0.14728266
H        5.87819349       2.44723688       6.71587439        5       2.12923884       0.00270379       0.61946929
H        9.25893286       7.86864644      12.56754394        6       0.13600168       0.04914009       0.62403834
H        2.56381550       3.12828462       9.41461258        7       1.05822134       0.99179482       1.85933781
H        4.09247921       5.64604820       2.09946798        8      -1.34518993       1.13891220       2.34094763
H       10.65907848      10.37572784       5.28959818        9      -0.21661265      -0.57825613      -0.64533871
H        3.53986052       5.18908631       9.25868762       10      -0.64707923       2.74163675      -0.17507359
H       10.16264676       5.78072993      12.77550300       11       0.04408295      -1.76565886       0.00271371
H        9.69266609       8.30818919       5.44303132       12      -0.19354650       0.82634073       0.04117580
H        3.11041767       7.69645450       1.85771272       13      -0.33019108      -0.07244271       0.27148503
H        8.56497345       9.18506019       8.52976011       14       0.57873708      -0.38734362       0.37370810
H       11.81129732      11.17821362      13.44301394       15      -2.03878999      -1.88606882       1.26573014
H        4.76409962       4.33154377       6.11944381       16      -0.39201716       0.00969667      -0.15059520
H        1.42832950       2.38835189       1.23076467       17      -0.77909994      -0.85142481      -0.02223300
H        5.60959847       8.53818142      10.85200040       18      -0.72134036      -1.15110314      -0.51709616
H        8.86994605      11.78166769      11.18131959       19      -0.81567824       0.55418199       0.34905818
H        7.64614070       5.03452448       3.89453040       20       1.16020203       0.38894534       0.37064940
H        4.38945928       1.66965803       3.43848027       21       0.02836837      -0.09080770      -0.01056704
H        8.31472554       5.50166544       7.75013577       22      -0.00819169      -1.40774083      -0.34827769
H        8.24794199       5.50335536      14.28915919       23       0.49865282       1.53597534       0.13225944
H        4.97261604       8.08643713       7.00496415       24       0.50431985      -0.98310685      -0.11018045
H        4.99202266       7.96043767       0.43752608       25       0.28316104       0.38171214       0.32398367
H       10.60318640      10.09636920       9.90483033       26      -0.01756226       0.59499925       0.11778206
H        7.27546871      10.21072827      12.20744639       27      -0.16353765       0.33859372      -0.09702022
H        2.65550699       3.38978313       4.90182827       28       0.27364466       0.83208501      -0.46211129
H        6.03271451       3.36800924       2.46517623       29       0.09442372      -2.23980331      -0.14009689
C        9.64756771       9.11604074      14.31312249       30      -0.25892752       0.74483860       2.08969688
C        6.31684714      11.21953462       7.74449477       31       2.23246479      -0.24665648      -0.21687186
C        3.66800996       4.45678750       0.35067547       32       1.15213609      -0.13360256      -0.90013820
C        7.01412359       2.32857962       6.99332436       33      -2.91215324      -0.11306547       0.18222281
C        9.17227019       7.12037911       8.84093860       34      -3.73855972       4.20896292      -2.00180531
C        9.22670071       3.86254399      13.20737401       35      -1.86018169      -1.49628842       0.72095537
C        4.11654111       6.41580426       5.80591643       36      -1.66616726      -0.87029815      -0.03610875
C        3.99589510       9.58035937       1.53141676       37       4.71373653       2.34593868      -2.68830919
C        8.89053399       8.28252533      13.52611168       38      -0.85489303       0.04273320      -1.16088152
C        2.23774707       2.71332110       8.52962608       39      -3.32732606       0.12599468      -0.48311651
C        4.43085802       5.27120629       1.21608596       40       2.03168297      -2.08483982      -3.60318184
C       11.04252662      10.75787250       6.20301006       41       3.40908360       1.24035215       1.69165421
C        3.45344128       6.39063110       9.32843000       42       7.72005081      -7.65247536       4.47025490
C        3.59136953       4.62976186      12.65560217       43      -0.54357207       4.30130243       0.41022065
C        9.63501343       7.25904618       5.26664647       44       3.71196985      -1.88411117       1.33827591
C        9.68206362       8.77063922       2.01382424       45      -1.43401384      -0.52405000       1.06244242
C        6.56240326       7.32051199      12.99020859       46       3.59708714      -0.38165075      -1.89136446
C        6.53208657       3.75552007       8.95964612       47       2.25781608      -0.49879757       2.16644597
C        6.74736211       6.26613732       1.76842536       48       0.88040799      -4.25816441      -6.16996908
C        6.74723960       9.84461220       5.71311247       49       1.47001350      -2.85480690      -2.14717102
C        7.53230600       8.11025218      13.80968592       50      -1.30639100       1.01814771       2.70838594
C        7.48749779       2.91058794       8.20623298       51       0.60073000      -0.58513111      -2.29165483
C        5.79280578       5.44335989       0.88644809       52       1.07778144      -1.16920447      -2.25737977
C        5.85383251      10.64018601       6.59423736       53      -2.59298611      -1.14535165      -2.38722038
C        9.32187688       8.51865366       9.01175526       54       0.82847571       2.41685796       1.10141397
C        5.93427894      11.73826775      13.04720016       55       3.60213184       2.63208699      -2.03810215
C        3.98094396       4.93896541       5.63929484       56       1.01025331       3.03506804       0.14369358
C        7.23024001       1.71474255       1.59044048       57       0.12325408       0.24112029       1.23046124
C        4.73858314       8.07359530      10.28970962       58      -0.01572050       4.38084650       0.44702554
C        7.98120157      12.20759183      11.72038510       59       0.41105437      -2.45385933       0.52403802
C        8.59419785       5.41778718       4.38016372       60      -0.85714281      -1.45827532      -0.11793882
C        5.24482588       1.29848581       2.86559589       61      -0.61973315       3.68598175       0.64352417
C        8.13170402       6.48302076       8.09309970       62      -0.38385445       1.60210681      -0.33578742
C        8.14476372       4.50099649      13.96795477       63       3.43812990       0.94518214      -1.37700462
C        5.18690170       7.02288722       6.67917577       64      -4.29742479       1.15500295      -2.27723455
C        5.16983387       9.00195768       0.80019043       65      -1.23159969      -1.16206312      -0.73242992
C       10.42930155       9.04846175       9.78722392       66      -1.63222337      -3.05707622      -1.65455306
C        7.06134688      11.28377825      12.32107267       67      -0.13139990       0.40779215      -0.21307740
C        2.91466520       4.47749177       4.88835156       68      -1.25386763       0.35648957       0.32916716
C        6.15994444       2.20766387       2.33154043       69       0.54953688       2.34072948      -0.51981366
N        4.58136574       6.80858519      10.10320557       70      -1.57604635      -1.86400282      -1.42786193
N        4.60552222       4.22698309      11.92203208       71       0.59970427      -0.68677741      -0.69176614
N        8.64331440       6.76111251       4.55455199       72       0.18178383      -1.38226318       0.02666786
N        8.66092817       9.33793527       2.71039114       73      -0.31380397      -4.59763765      -0.23670623
N        7.08413417       7.15401773       7.72243774       74      -0.13465646      -1.32227087      -0.42052698
N       10.41051950      13.24041406      14.35368777       75      -0.76842403      -4.48427296      -0.97624320
N        6.23305667       6.37039591       6.93208636       76       2.12334895       0.37865978       1.51814806
N        2.95290289       0.29989073       0.38119581       77      -3.26679039       2.57586479       2.65900421
O        5.37699529       7.32019285      13.17848397       78      -3.48663807       0.15173140       1.17048931
O        5.31530084       3.73296929       8.81983317       79      -1.53706598       0.15285563      -0.87871277
O        7.96491794       6.20614353       1.45126533       80       0.23313066       0.60809177       1.04248357
O        8.02818340       9.71486501       5.91036150       81      -3.25083256       0.80164403      -0.34964517
O        7.11408571       6.68235981      11.96198342       82       0.33212253       0.12311366       0.49830753
O        7.14578429       4.33720987       9.97038986       83      -0.41049755       0.61126572      -0.10758340
O        6.10804403       6.88272475       2.57496520       84      -1.44990325       3.84759712       5.23895454
O        6.11415872       9.12003078       4.66659497       85       1.60190845       2.08720922       2.65312004
86
Lattice="6.62680356 0.0 0.0 3.3097315233375513 9.295566025024138 0.0 3.313807240731777 4.283575401645047 14.665149429117422" Properties=species:S:1:pos:R:3:spacegroup_kinds:I:1:forces:R:3 spacegroup="P 1" unit_cell=conventional occupancy="_JSON {\"0\": {\"Zn\": 1}, \"1\": {\"Zn\": 1}, \"2\": {\"H\": 1}, \"3\": {\"H\": 1}, \"4\": {\"H\": 1}, \"5\": {\"H\": 1}, \"6\": {\"H\": 1}, \"7\": {\"H\": 1}, \"8\": {\"H\": 1}, \"9\": {\"H\": 1}, \"10\": {\"H\": 1}, \"11\": {\"H\": 1}, \"12\": {\"H\": 1}, \"13\": {\"H\": 1}, \"14\": {\"H\": 1}, \"15\": {\"H\": 1}, \"16\": {\"H\": 1}, \"17\": {\"H\": 1}, \"18\": {\"H\": 1}, \"19\": {\"H\": 1}, \"20\": {\"H\": 1}, \"21\": {\"H\": 1}, \"22\": {\"H\": 1}, \"23\": {\"H\": 1}, \"24\": {\"H\": 1}, \"25\": {\"H\": 1}, \"26\": {\"H\": 1}, \"27\": {\"H\": 1}, \"28\": {\"H\": 1}, \"29\": {\"H\": 1}, \"30\": {\"C\": 1}, \"31\": {\"C\": 1}, \"32\": {\"C\": 1}, \"33\": {\"C\": 1}, \"34\": {\"C\": 1}, \"35\": {\"C\": 1}, \"36\": {\"C\": 1}, \"37\": {\"C\": 1}, \"38\": {\"C\": 1}, \"39\": {\"C\": 1}, \"40\": {\"C\": 1}, \"41\": {\"C\": 1}, \"42\": {\"C\": 1}, \"43\": {\"C\": 1}, \"44\": {\"C\": 1}, \"45\": {\"C\": 1}, \"46\": {\"C\": 1}, \"47\": {\"C\": 1}, \"48\": {\"C\": 1}, \"49\": {\"C\": 1}, \"50\": {\"C\": 1}, \"51\": {\"C\": 1}, \"52\": {\"C\": 1}, \"53\": {\"C\": 1}, \"54\": {\"C\": 1}, \"55\": {\"C\": 1}, \"56\": {\"C\": 1}, \"57\": {\"C\": 1}, \"58\": {\"C\": 1}, \"59\": {\"C\": 1}, \"60\": {\"C\": 1}, \"61\": {\"C\": 1}, \"62\": {\"C\": 1}, \"63\": {\"C\": 1}, \"64\": {\"C\": 1}, \"65\": {\"C\": 1}, \"66\": {\"C\": 1}, \"67\": {\"C\": 1}, \"68\": {\"C\": 1}, \"69\": {\"C\": 1}, \"70\": {\"N\": 1}, \"71\": {\"N\": 1}, \"72\": {\"N\": 1}, \"73\": {\"N\": 1}, \"74\": {\"N\": 1}, \"75\": {\"N\": 1}, \"76\": {\"N\": 1}, \"77\": {\"N\": 1}, \"78\": {\"O\": 1}, \"79\": {\"O\": 1}, \"80\": {\"O\": 1}, \"81\": {\"O\": 1}, \"82\": {\"O\": 1}, \"83\": {\"O\": 1}, \"84\": {\"O\": 1}, \"85\": {\"O\": 1}}" energy=-585.5289916992188 free_energy=-585.5289916992188 stress="-0.021214362233877182 -0.0007315062102861702 0.007378546521067619 -0.0007315062102861702 0.0017751905834302306 0.005425661336630583 0.007378546521067619 0.005425661336630583 0.005176682490855455" pbc="T T T"
Zn       5.94815031       5.49088065      10.93380760        0      -0.45112455       0.51204491       0.85131848
Zn       7.46263907       7.95009987       3.67525824        1      -1.28324413       1.31097221       0.05449302
H       10.70101194       9.26394066      14.04135263        2      -0.99817979      -0.17733499       0.34518921
H        7.35756169      11.14332409       7.97649464        3       2.33686352      -0.39957941       0.65750670
H        2.60967879       4.28843102       0.64252616        4       1.59381604       0.04199328      -0.60732311
H        5.90138290       2.40367224       6.70120626        5       1.14213324       0.08784572       0.47453710
H        9.24896196       7.87967473      12.53997811        6       0.03687600       0.17053957       1.57348883
H        2.57368518       3.08322535       9.45933347        7      -0.04363128       0.09924369      -0.64192832
H        4.04811604       5.67819283       2.14775318        8       0.30199042      -0.61079407      -1.44603419
H       10.64452034      10.33269193       5.29957140        9       0.52040565      -0.28452918       0.31332359
H        3.56945704       5.16852152       9.23318953       10      -0.49030444       2.26399755      -0.01109032
H       10.17063875       5.77264787      12.77215313       11       0.08038126      -0.47352666       0.39328963
H        9.70934813       8.31235526       5.46199813       12      -0.45932984      -0.28053170       0.00929674
H        3.13947244       7.67502168       1.90652547       13      -0.33071390      -0.54262435       0.34239951
H        8.59217552       9.14982062       8.56442753       14      -0.37390050       0.47970495      -0.30329588
H       11.84439930      11.17655927      13.48510151       15      -2.18005633      -1.97174501       1.41418707
H        4.81100579       4.28789444       6.12575688       16      -1.38576293       1.04659867      -1.04416013
H        1.44535276       2.36335399       1.21105325       17      -0.45598257      -0.19420695      -0.16521508
H        5.65535648       8.49156568      10.85716805       18      -1.58969855      -1.20082235      -0.65033513
H        8.85318450      11.73726791      11.15608813       19      -0.34010863       0.62479389       0.10042975
H        7.63890373       4.99897088       3.91228756       20       0.89130229       0.40887967       0.21750319
H        4.36752195       1.68618320       3.48530930       21       1.57070327      -0.77297533      -1.12639046
H        8.34984043       5.50748324       7.76220177       22      -0.08579592      -1.88370538      -0.56261212
H        8.27851214       5.47071480      14.27942411       23       0.61176336       3.01149702       0.83728409
H        5.00429467       8.04003574       7.05214287       24       0.48595217      -0.46757641       0.08045775
H        5.02627987       7.93856406       0.47916930       25       0.35252160      -0.22827360      -0.20712650
H       10.65183168      10.10885731       9.94723868       26      -0.28349701      -1.21956456      -0.08292866
H        7.29393794      10.18735947      12.25604049       27      -0.37946773       1.25017953      -0.07698139
H        2.63998585       3.34289729       4.93004206       28       0.69668245       1.74398744      -0.58503360
H        6.04972863       3.37736632       2.47258749       29       0.22969453      -3.07093048      -0.29577586
C        9.62987501       9.08122312      14.31236947       30       1.48207331       2.04132938       3.37290788
C        6.34945582      11.18509086       7.78864291       31      -0.88710356      -0.62748665      -2.93081117