84
Lattice="3.66808178 0.0 0.0 -0.00022719830248202528 15.91226266837801 0.0 8.905891328487596e-05 -7.186696867836588e-05 17.292012129621316" Properties=species:S:1:pos:R:3:spacegroup_kinds:I:1:forces:R:3 spacegroup="P 1" unit_cell=conventional occupancy="_JSON {\"0\": {\"Cu\": 1}, \"1\": {\"Cu\": 1}, \"2\": {\"Cu\": 1}, \"3\": {\"Cu\": 1}, \"4\": {\"Cu\": 1}, \"5\": {\"Cu\": 1}, \"6\": {\"Cu\": 1}, \"7\": {\"Cu\": 1}, \"8\": {\"Cu\": 1}, \"9\": {\"Cu\": 1}, \"10\": {\"Cu\": 1}, \"11\": {\"Cu\": 1}, \"12\": {\"H\": 1}, \"13\": {\"H\": 1}, \"14\": {\"H\": 1}, \"15\": {\"H\": 1}, \"16\": {\"H\": 1}, \"17\": {\"H\": 1}, \"18\": {\"H\": 1}, \"19\": {\"H\": 1}, \"20\": {\"H\": 1}, \"21\": {\"H\": 1}, \"22\": {\"H\": 1}, \"23\": {\"H\": 1}, \"24\": {\"H\": 1}, \"25\": {\"H\": 1}, \"26\": {\"H\": 1}, \"27\": {\"H\": 1}, \"28\": {\"H\": 1}, \"29\": {\"H\": 1}, \"30\": {\"H\": 1}, \"31\": {\"H\": 1}, \"32\": {\"H\": 1}, \"33\": {\"H\": 1}, \"34\": {\"H\": 1}, \"35\": {\"H\": 1}, \"36\": {\"C\": 1}, \"37\": {\"C\": 1}, \"38\": {\"C\": 1}, \"39\": {\"C\": 1}, \"40\": {\"C\": 1}, \"41\": {\"C\": 1}, \"42\": {\"C\": 1}, \"43\": {\"C\": 1}, \"44\": {\"C\": 1}, \"45\": {\"C\": 1}, \"46\": {\"C\": 1}, \"47\": {\"C\": 1}, \"48\": {\"N\": 1}, \"49\": {\"N\": 1}, \"50\": {\"N\": 1}, \"51\": {\"N\": 1}, \"52\": {\"N\": 1}, \"53\": {\"N\": 1}, \"54\": {\"N\": 1}, \"55\": {\"N\": 1}, \"56\": {\"N\": 1}, \"57\": {\"N\": 1}, \"58\": {\"N\": 1}, \"59\": {\"N\": 1}, \"60\": {\"N\": 1}, \"61\": {\"N\": 1}, \"62\": {\"N\": 1}, \"63\": {\"N\": 1}, \"64\": {\"N\": 1}, \"65\": {\"N\": 1}, \"66\": {\"N\": 1}, \"67\": {\"N\": 1}, \"68\": {\"N\": 1}, \"69\": {\"N\": 1}, \"70\": {\"N\": 1}, \"71\": {\"N\": 1}, \"72\": {\"Cl\": 1}, \"73\": {\"Cl\": 1}, \"74\": {\"Cl\": 1}, \"75\": {\"Cl\": 1}, \"76\": {\"Cl\": 1}, \"77\": {\"Cl\": 1}, \"78\": {\"Cl\": 1}, \"79\": {\"Cl\": 1}, \"80\": {\"Cl\": 1}, \"81\": {\"Cl\": 1}, \"82\": {\"Cl\": 1}, \"83\": {\"Cl\": 1}}" energy=-488.42327880859375 free_energy=-488.42327880859375 stress="-0.011246533133089542 0.0014775429153814912 -0.0018780375830829144 0.0014775429153814912 -0.003901231801137328 -0.00497127790004015 -0.0018780375830829144 -0.00497127790004015 -0.005230854265391827" pbc="T T T"
Cu       0.37082389      13.58492132      13.92649348        0       0.02799172      -0.31890494       0.22624321
Cu       3.32550334       5.62295883       3.35318099        1       0.03719818      -0.34807694      -0.32717851
Cu       1.50555713      13.58901067       5.29259768        2      -0.07537234      -0.36426502       0.09142731
Cu       2.20627944       5.62574821      11.95722498        3       0.04689502      -0.29707974      -0.08693654
Cu       2.84427047      13.31965765      17.27465143        4       0.04985665       0.13830008      -0.31784207
Cu       0.85367471       5.41111620       0.00231730        5       0.02281158      -0.07389385       0.28918868
Cu       2.68979922      13.36823737       8.62799437        6       0.05195829      -0.09856352      -0.37985876
Cu       1.03603018       5.41089360       8.64899975        7      -0.00142796      -0.09298241       0.19820389
Cu       2.08429610      10.35241010      15.41507067        8      -0.10315508       0.27354345      -0.18307474
Cu       1.63462430       2.41933771       1.86731571        9      -0.04177552       0.05409077       0.04496476
Cu       3.46903142      10.37880445       6.76302542       10      -0.06573434      -0.02133621      -0.18430082
Cu       0.23414937       2.41534787      10.50945555       11      -0.00973486       0.11441894       0.21582031
H        1.45381835      12.03254220      12.30172446       12       0.24732706       0.61960566      -1.09487808
H        2.15938972       4.07625446       4.99803433       13       0.13132127       0.11398955      -0.18738900
H        0.32008375      12.05015668       3.60592555       14       0.44549656      -0.46644461       1.25761747
H        3.29714045       4.09072164      13.66084668       15      -0.29390809      -0.28849334      -0.69353157
H        2.16854920      12.01463579      10.64384540       16       0.39497468      -0.69305575      -0.63970345
H        1.44359738       4.01139392       6.63818212       17       0.66230178       0.88935471      -0.88919383
H        3.27761755      11.97304554       2.01852435       18       0.06190425       0.08484586      -0.07992066
H        0.33266548       4.01079685      15.29113679       19      -0.24048018       0.28090894      -0.41639230
H        3.04714807       1.38912742      12.68696900       20      -0.34295088       0.91841018      -0.42962962
H        0.58926670       9.34518314       4.54563157       21       0.23305784       0.52812833       0.03954449
H        2.44482808       1.39079579       4.04115820       22       0.13856909       0.31895888       0.05483450
H        1.21577156       9.34535671      13.19254645       23       0.10597841       0.14388289       0.28028888
H        3.08514797      15.86178470      13.73222487       24       0.60319728       0.69213510      -1.19190943
H        0.54194003       7.90801063       3.52815806       25       0.22182246      -0.37764448      -0.51348007
H        2.35731832      15.86250347       5.08251048       26       0.19678447      -0.24386171       0.34163928
H        1.25628978       7.93429486      12.20882278       27      -0.12846169      -0.73367852      -0.61807686
H        2.10928924      15.75443080       7.95940104       28       0.68331969      -0.78369164      -1.01583743
H        1.50335375       7.78588412       9.29670616       29       0.97145951       1.02208471      -1.24795198
H        3.34532067      15.74296241      16.65337316       30       0.19872950       0.41116306       0.00625354
H        0.27382432       7.78683772       0.66402532       31      -0.27401391       0.47625843      -0.46543548
H        1.37251443       1.31735660       8.55056984       32      -0.02331440       0.06801116      -0.05883751
H        2.29727662       9.27300422       8.68310564       33       0.63987505       2.52822661       0.32009390
H        0.45677211       1.31629108      17.19618482       34       0.58016515       2.46094131      -0.32448596
H        3.19843806       9.27249392       0.03604499       35      -0.54052472       1.67984462       0.32544532
C        0.43408201      15.72583023      11.93480578       36      -0.47257602       1.72445893       0.52520108
C        3.29152123       7.79273570       5.30199880       37      -0.87350714      -0.63155127       0.81766695
C        1.45759771      15.75671837       3.30172605       38      -1.10460162      -1.11643672      -1.16451764
C        2.25926335       7.79253510      13.96065501       39       0.31514150      -0.11095693      -0.06847591
C        1.40293047      13.81398534      11.18011473       40       0.32240033      -1.85557914       0.30454797
C        2.30185646       5.84418130       6.06097241       41      -0.10946567      -0.63922417       0.24765848
C        0.47396493      13.81493528       2.53038035       42      -0.60890937      -2.07917356       0.21338816
C        3.25071495       5.85765153      14.71405479       43       0.16757159      -1.57584250       0.27870297
C        1.36321902      15.68988175       9.83342157       44      -0.21371953      -0.35189351       0.10175321
C        2.36205309       7.73937470       7.42037128       45       0.12377115      -0.79206222      -0.49265316
C        0.52846786      15.68843342       1.18147203       46       0.10806973       0.12648934      -0.04277084
C        3.18544525       7.72970274      16.05994794       47       0.09808315      -0.10680825       0.35831422
N        0.70495344       0.49325633      10.77500670       48      -0.08141825      -0.43256819       0.24966726
N        3.01925857       8.43892915       6.46730377       49       0.24558330       0.29377916      -0.12533318
N        1.17235061       0.48916544       2.13571326       50       0.31175971       0.13769563       0.26423028
N        2.53730428       8.44625424      15.10877995       51      -0.07143073      -0.03340147       0.20262852
N        1.73687436      12.50049806      11.39925995       52      -0.73583907       1.23016584       1.17395496
N        1.92775453       4.55317079       5.86600271       53      -0.60865438      -0.16242050       1.16495013
N        0.07267226      12.49577307       2.76019197       54       0.04075032       2.43784571      -1.62496328
N        3.58089247       4.54139673      14.50849013       55       0.40543878       1.36851048       1.45510530
N        0.76885811      14.45577347      12.18471046       56      -0.02295406      -0.38040677       0.00526529
N        2.95211908       6.50273936       5.06501026       57      -0.27621984      -0.70459521       0.26543930
N        1.11881337      14.45380023       3.52862626       58      -0.03387606      -0.17510371      -0.01632389
N        2.60309747       6.50725009      13.72236724       59       0.10552590      -0.48003384      -0.06830133
N        1.73361936      14.39194259       9.99799532       60       0.19309428      -0.28876951       0.51243526
N        1.99194522       6.42913265       7.25578734       61      -0.16604604       0.09718104      -0.34515584
N        0.15814696      14.39264258       1.33510084       62      -0.22852252      -0.44162542       0.54654276
N        3.56868482       6.43145472      15.92073435       63      -0.03838238      -0.16444094      -1.01266122
N        3.47485164       0.51155436      12.90605386       64      -0.23526083      -1.78424788       1.57882786
N        0.22120044       8.42645352       4.33032349       65       0.66130817       1.29557633      -0.68800414
N        2.07333791       0.46651052       4.25872342       66       0.92570138       1.48395109       1.01237702
N        1.63850891       8.43604869      12.98862734       67      -0.62369061       1.47160494      -0.37511957
N        1.66085858       0.34698835       8.67978700       68      -0.49972695       1.56675601       0.36778173
N        2.06177805       8.34397112       8.55412306       69      -1.93406534      -3.18843794       1.74377012
N        0.22973380       0.38492387       0.03435928       70      -1.02258706      -2.81836271      -0.14413095
N        3.49502693       8.34488323      17.19948187       71       1.00137568      -1.84922874       0.59833163
Cl       0.30526767      11.26000713      14.14056517       72       0.19678320       0.11632623       0.15258503
Cl       3.30970746       3.30926598       3.14524710       73      -0.02749056       0.15063356      -0.11854838
Cl       1.48577074      11.25837602       5.51054029       74       0.00542047       0.18355563       0.07537667
Cl       2.13674006       3.29758748      11.81365216       75       0.12451075       0.14277598      -0.25223577
Cl       2.30426161      14.32906403      15.26920401       76       0.16753425      -0.15980920      -0.11264701
Cl       1.41747134       6.38443947       1.97988105       77      -0.25338498      -0.14574647       0.19514011
Cl       3.24996849      14.35904711       6.61996247       78      -0.19024719      -0.20057857      -0.12666202
Cl       0.47062223       6.36986663      10.62508987       79       0.16479173      -0.08856364       0.14508753
Cl       1.94936224      11.25844640       0.19848716       80       0.09451449       0.00829684      -0.14389190
Cl       1.66657977       3.30311164      17.08505432       81      -0.06778035       0.05852024       0.04367129
Cl       3.50013589      11.25384129       8.82266805       82      -0.05018934       0.12257119      -0.00565772
Cl       0.11877673       3.32326668       8.47811754       83       0.15927446       0.12604472      -0.01806797
84
Lattice="3.66808178 0.0 0.0 -0.00022719830248202528 15.91226266837801 0.0 8.905891328487596e-05 -7.186696867836588e-05 17.292012129621316" Properties=species:S:1:pos:R:3:spacegroup_kinds:I:1:forces:R:3 spacegroup="P 1" unit_cell=conventional occupancy="_JSON {\"0\": {\"Cu\": 1}, \"1\": {\"Cu\": 1}, \"2\": {\"Cu\": 1}, \"3\": {\"Cu\": 1}, \"4\": {\"Cu\": 1}, \"5\": {\"Cu\": 1}, \"6\": {\"Cu\": 1}, \"7\": {\"Cu\": 1}, \"8\": {\"Cu\": 1}, \"9\": {\"Cu\": 1}, \"10\": {\"Cu\": 1}, \"11\": {\"Cu\": 1}, \"12\": {\"H\": 1}, \"13\": {\"H\": 1}, \"14\": {\"H\": 1}, \"15\": {\"H\": 1}, \"16\": {\"H\": 1}, \"17\": {\"H\": 1}, \"18\": {\"H\": 1}, \"19\": {\"H\": 1}, \"20\": {\"H\": 1}, \"21\": {\"H\": 1}, \"22\": {\"H\": 1}, \"23\": {\"H\": 1}, \"24\": {\"H\": 1}, \"25\": {\"H\": 1}, \"26\": {\"H\": 1}, \"27\": {\"H\": 1}, \"28\": {\"H\": 1}, \"29\": {\"H\": 1}, \"30\": {\"H\": 1}, \"31\": {\"H\": 1}, \"32\": {\"H\": 1}, \"33\": {\"H\": 1}, \"34\": {\"H\": 1}, \"35\": {\"H\": 1}, \"36\": {\"C\": 1}, \"37\": {\"C\": 1}, \"38\": {\"C\": 1}, \"39\": {\"C\": 1}, \"40\": {\"C\": 1}, \"41\": {\"C\": 1}, \"42\": {\"C\": 1}, \"43\": {\"C\": 1}, \"44\": {\"C\": 1}, \"45\": {\"C\": 1}, \"46\": {\"C\": 1}, \"47\": {\"C\": 1}, \"48\": {\"N\": 1}, \"49\": {\"N\": 1}, \"50\": {\"N\": 1}, \"51\": {\"N\": 1}, \"52\": {\"N\": 1}, \"53\": {\"N\": 1}, \"54\": {\"N\": 1}, \"55\": {\"N\": 1}, \"56\": {\"N\": 1}, \"57\": {\"N\": 1}, \"58\": {\"N\": 1}, \"59\": {\"N\": 1}, \"60\": {\"N\": 1}, \"61\": {\"N\": 1}, \"62\": {\"N\": 1}, \"63\": {\"N\": 1}, \"64\": {\"N\": 1}, \"65\": {\"N\": 1}, \"66\": {\"N\": 1}, \"67\": {\"N\": 1}, \"68\": {\"N\": 1}, \"69\": {\"N\": 1}, \"70\": {\"N\": 1}, \"71\": {\"N\": 1}, \"72\": {\"Cl\": 1}, \"73\": {\"Cl\": 1}, \"74\": {\"Cl\": 1}, \"75\": {\"Cl\": 1}, \"76\": {\"Cl\": 1}, \"77\": {\"Cl\": 1}, \"78\": {\"Cl\": 1}, \"79\": {\"Cl\": 1}, \"80\": {\"Cl\": 1}, \"81\": {\"Cl\": 1}, \"82\": {\"Cl\": 1}, \"83\": {\"Cl\": 1}}" energy=-486.41485595703125 free_energy=-486.41485595703125 stress="-0.012728444300591946 0.002125560073181987 -0.0070062861777842045 0.002125560073181987 -0.013484897091984749 -0.00813063234090805 -0.0070062861777842045 -0.00813063234090805 -0.00901979673653841" pbc="T T T"
Cu       0.40024897      13.59981085      13.93650412        0       0.06574907      -0.33507478       0.14164871
Cu       3.33864838       5.63591240       3.32695513        1      -0.01035114      -0.47137427      -0.28910810
Cu       1.52775768      13.57752012       5.28894539        2      -0.04705087      -0.26148820       0.02749010
Cu       2.23365600       5.63322885      11.93769292        3       0.04924668      -0.28851897      -0.00821949
Cu       2.86775999      13.31952389      17.26474481        4       0.01959495       0.02101927      -0.19864365
Cu       0.88275407       5.43843776       0.02028912        5      -0.03189215      -0.20519330       0.04959748
Cu       2.71648304      13.39281974       8.63777921        6       0.07105584      -0.22057690      -0.40224618
Cu       1.05693089       5.43839189       8.66584500        7      -0.01973370      -0.33863008       0.05159682
Cu       2.11279166      10.36901203      15.39580138        8      -0.16158578       0.36635387      -0.06347371
Cu       1.65442234       2.44824374       1.83916431        9      -0.05116956      -0.10555959       0.22915134
Cu       3.49816113      10.38737298       6.79192461       10      -0.06678321      -0.19877627      -0.42973185
Cu       0.23946406       2.42724514      10.49429009       11      -0.02800959       0.13261685       0.32576716
H        1.42395586      12.00676425      12.31857648       12       0.44182354       1.10983479      -1.79032254
H        2.13633984       4.05175480       5.00901789       13       0.16979344       0.73819941       0.25090376
H        0.29606541      12.05800181       3.59401911       14       1.03726935      -1.63986027       3.41983342
H        3.26915366       4.09231852      13.67492993       15      -0.83660907      -1.13136244      -2.13657236
H        2.14423779      11.99973229      10.64908080       16       0.69604301      -1.18700230      -1.18553495
H        1.41369624       4.00159666       6.66771368       17       1.27230775       1.66969371      -1.49615836
H        3.25097134      11.96778090       2.04145796       18       0.15323339       0.19157529       0.00328659
H        0.30267521       4.02377674      15.28399154       19      -0.04715393      -0.15215689      -0.15842399
H        3.01922738       1.35919583      12.65811396       20      -0.05615522       0.48589456      -0.34430957
H        0.57666629       9.31550920       4.51724543       21       0.43379852       1.17159784       0.18219864
H        2.44258581       1.36082902       4.01146238       22       0.56748867       1.14972937       0.21018630
H        1.21518829       9.31629670      13.16270844       23       0.12188917       0.52503759       0.61364949
H        3.05518103      15.83211208      13.76131118       24       1.16207778       1.05962729      -2.28733110
H        0.51251371       7.88236127       3.51744586       25       0.28581902      -0.27504465      -0.57722235
H        2.32847691      15.84804671       5.06510914       26       0.55801338      -0.56525666       1.17548275
H        1.22707716       7.94415526      12.23619740       27      -0.17609204      -1.31404305      -1.04852581
H        2.08898350      15.74809351       7.93881659       28       1.11367714      -1.48932576      -1.82993782
H        1.47354307       7.75759792       9.32207602       29       1.62332869       1.49954319      -2.15420842
H        3.31587258      15.72115041      16.68273237       30       0.31731838       0.50969142       0.01662378
H        0.24382604       7.76986565       0.68390102       31      -0.34875694       0.52334857      -0.97535270
H        1.36774940       1.28742167       8.52622463       32      -0.11745998       0.55381000      -0.26667556
H        2.32595744       9.24635218       8.65422229       33       0.56783825       2.41204286       0.27237356
H        0.45809660       1.28724918      17.16741645       34       0.61802393       3.29485250      -0.46911788
H        3.20561266       9.24250006       0.00712793       35      -0.59603566       1.95211029       0.46631712
C        0.46237349      15.71922346      11.90915838       36      -1.22867286       1.96231961       2.18331146
C        3.31802298       7.77546271       5.27566898       37      -1.59830153       0.81128412       3.52969909
C        1.48455266      15.78252857       3.31040500       38      -2.26758528      -2.21412277      -3.36628962
C        2.27717181       7.80152089      13.95492239       39       0.77448165       0.22304782       1.26392496
C        1.43154962      13.79140533      11.15160332       40      -0.50280964      -0.30508083       1.72130883
C        2.32902124       5.83968409       6.07802059       41       0.39409435       0.72301453      -0.50610125
C        0.50311553      13.83061237       2.54463993       42      -1.56947172      -3.34937191      -0.78128147
C        3.27828283       5.87922093      14.69824116       43       0.42666909      -2.40858388       1.04577494
C        1.39142445      15.71452389       9.85723004       44       0.05825246      -0.04796699      -1.18058062
C        2.36233683       7.71095165       7.39400221       45       1.09843612       2.38272929       0.28170019
C        0.55817475      15.70405450       1.18803112       46      -0.30192512      -0.51574504      -0.79723811
C        3.21389251       7.75700717      16.03619306       47       0.20770782      -1.08773375       0.56764466
N        0.73286306       0.51381036      10.80307605       48       0.52757668      -0.15125589      -1.57207978
N        3.04315664       8.46537032       6.47724459       49       0.19643724      -1.09507525      -1.29944015
N        1.20045139       0.51293961       2.11343180       50       0.72894150       0.17833731       1.49795246
N        2.55456125       8.47208620      15.12089554       51      -0.51655221      -0.16883688      -1.27286935
N        1.73792977      12.48870220      11.39770824       52      -1.06192946       0.98125756       2.07510257
N        1.95620481       4.57511132       5.88537168       53      -1.41765678      -2.22783232       1.28473914
N        0.06067674      12.48098327       2.78435844       54      -0.19632865       4.59467936      -3.97810936
N        3.57167477       4.52036651      14.48677789       55       0.72073817       3.83457470       3.08441758
N        0.79835863      14.47523655      12.18364741       56       0.81014919      -2.25337553      -0.93838084
N        2.97907712       6.52709325       5.04839545       57      -1.24218726      -3.16349125       0.96830821
N        1.14792533      14.46891036       3.50044412       58       0.51006216       0.22618867       1.31309974
N        2.63282357       6.53520750      13.72344159       59       0.23889810      -1.09959400      -0.39798868
N        1.76331703      14.41905389      10.00298841       60       0.35060227      -0.95719314       0.49828541
N        2.01849650       6.45647492       7.25972269       61      -0.74290872      -2.83516932      -1.25677371
N        0.18620174      14.39623887       1.34313635       62      -0.19538681      -0.18275464       0.55228078
N        3.59746678       6.46131474      15.92983272       63      -0.11253824      -1.31465101      -2.41314840
N        3.47602744       0.48264739      12.88017318       64      -1.16132402      -1.35588813       2.66932058
N        0.22083975       8.40321972       4.32900613       65       1.49210334       1.82633531      -2.32136059
N        2.07406417       0.46271761       4.26274658       66       1.07222068       2.10556841       1.26321042
N        1.65246289       8.41631884      12.99567830       67      -1.12826228       2.40521049      -0.99336445
N        1.68931106       0.34109656       8.65523238       68      -1.29328585       1.81317306       2.79374814
N        2.08123713       8.31684927       8.53300517       69      -2.61939859      -3.23785973       2.94518328
N        0.25967328       0.36547735       0.01366837       70      -1.07720304      -3.73349071       0.25778872
N        3.51044645       8.32143406      17.17560206       71       1.32379341      -0.87730849       2.17933989
Cl       0.27907876      11.24229622      14.16656928       72       0.28628752       0.20267735       0.03167398
Cl       3.28196165       3.29105856       3.16750658       73       0.00434211       0.24028921      -0.04580631
Cl       1.47353090      11.28309954       5.52605510       74       0.05626490       0.11754479       0.04952069
Cl       2.11125929       3.29814477      11.84273671       75       0.13697225       0.11213781      -0.34610954
Cl       2.33066749      14.33433973      15.24639944       76       0.08710015      -0.17750753      -0.01957264
Cl       1.44569877       6.38239850       1.95592779       77      -0.24218857      -0.04688382       0.36941040
Cl       3.27842692      14.38589528       6.64833915       78      -0.22148290      -0.25138423      -0.30691373
Cl       0.49897636       6.34986130      10.61233848       79       0.07948370       0.00001282       0.28916311
Cl       1.92407028      11.22852083       0.22476605       80       0.17927037       0.15096654      -0.23967485
Cl       1.64018325       3.29242797      17.11249648       81      -0.03512397       0.25844738      -0.22562334
Cl       3.47265593      11.22427005       8.80105849       82      -0.03249904       0.40053332       0.29294050
Cl       0.08996795       3.30265777       8.46307955       83       0.25358441       0.32049239      -0.07513283
84
Lattice="3.66808178 0.0 0.0 -0.00022719830248202528 15.91226266837801 0.0 8.905891328487596e-05 -7.186696867836588e-05 17.292012129621316" Properties=species:S:1:pos:R:3:spacegroup_kinds:I:1:forces:R:3 spacegroup="P 1" unit_cell=conventional occupancy="_JSON {\"0\": {\"Cu\": 1}, \"1\": {\"Cu\": 1}, \"2\": {\"Cu\": 1}, \"3\": {\"Cu\": 1}, \"4\": {\"Cu\": 1}, \"5\": {\"Cu\": 1}, \"6\": {\"Cu\": 1}, \"7\": {\"Cu\": 1}, \"8\": {\"Cu\": 1}, \"9\": {\"Cu\": 1}, \"10\": {\"Cu\": 1}, \"11\": {\"Cu\": 1}, \"12\": {\"H\": 1}, \"13\": {\"H\": 1}, \"14\": {\"H\": 1}, \"15\": {\"H\": 1}, \"16\": {\"H\": 1}, \"17\": {\"H\": 1}, \"18\": {\"H\": 1}, \"19\": {\"H\": 1}, \"20\": {\"H\": 1}, \"21\": {\"H\": 1}, \"22\": {\"H\": 1}, \"23\": {\"H\": 1}, \"24\": {\"H\": 1}, \"25\": {\"H\": 1}, \"26\": {\"H\": 1}, \"27\": {\"H\": 1}, \"28\": {\"H\": 1}, \"29\": {\"H\": 1}, \"30\": {\"H\": 1}, \"31\": {\"H\": 1}, \"32\": {\"H\": 1}, \"33\": {\"H\": 1}, \"34\": {\"H\": 1}, \"35\": {\"H\": 1}, \"36\": {\"C\": 1}, \"37\": {\"C\": 1}, \"38\": {\"C\": 1}, \"39\": {\"C\": 1}, \"40\": {\"C\": 1}, \"41\": {\"C\": 1}, \"42\": {\"C\": 1}, \"43\": {\"C\": 1}, \"44\": {\"C\": 1}, \"45\": {\"C\": 1}, \"46\": {\"C\": 1}, \"47\": {\"C\": 1}, \"48\": {\"N\": 1}, \"49\": {\"N\": 1}, \"50\": {\"N\": 1}, \"51\": {\"N\": 1}, \"52\": {\"N\": 1}, \"53\": {\"N\": 1}, \"54\": {\"N\": 1}, \"55\": {\"N\": 1}, \"56\": {\"N\": 1}, \"57\": {\"N\": 1}, \"58\": {\"N\": 1}, \"59\": {\"N\": 1}, \"60\": {\"N\": 1}, \"61\": {\"N\": 1}, \"62\": {\"N\": 1}, \"63\": {\"N\": 1}, \"64\": {\"N\": 1}, \"65\": {\"N\": 1}, \"66\": {\"N\": 1}, \"67\": {\"N\": 1}, \"68\": {\"N\": 1}, \"69\": {\"N\": 1}, \"70\": {\"N\": 1}, \"71\": {\"N\": 1}, \"72\": {\"Cl\": 1}, \"73\": {\"Cl\": 1}, \"74\": {\"Cl\": 1}, \"75\": {\"Cl\": 1}, \"76\": {\"Cl\": 1}, \"77\": {\"Cl\": 1}, \"78\": {\"Cl\": 1}, \"79\": {\"Cl\": 1}, \"80\": {\"Cl\": 1}, \"81\": {\"Cl\": 1}, \"82\": {\"Cl\": 1}, \"83\": {\"Cl\": 1}}" energy=-485.31182861328125 free_energy=-485.31182861328125 stress="-0.012947924435138702 0.003740197978913784 -0.008554249070584774 0.003740197978913784 -0.01591658405959606 -0.00986507534980774 -0.008554249070584774 -0.00986507534980774 -0.013484394177794456" pbc="T T T"
Cu       0.42852763      13.57199759      13.91606719        0       0.04141156      -0.30069071       0.16761960
Cu       3.36640006       5.60710036       3.30317706        1      -0.02783544      -0.46657234      -0.28347552
Cu       1.52978221      13.54930783       5.25956636        2      -0.02169928      -0.19200459       0.06018718
Cu       2.26322862       5.60483727      11.90985908        3       0.04479813      -0.20501934       0.00326026
Cu       2.88798475      13.32762638      17.23590150        4      -0.01953173      -0.16183919      -0.14495535
Cu       0.90686272       5.40938998      -0.00425394        5      -0.05689934      -0.08961000       0.11309060
Cu       2.74608058      13.36313579       8.60998766        6       0.01543196      -0.14800242      -0.28532642
Cu       1.08359852       5.40843425       8.63638402        7      -0.07704602      -0.25958666       0.21136683
Cu       2.12624716      10.38729561      15.42260573        8      -0.15652236       0.16039297      -0.15421315
Cu       1.68188506       2.43248856       1.81296485        9      -0.00420710      -0.18765149       0.31500238
Cu       3.52571723      10.35819829       6.76281356       10      -0.15922073      -0.18575954      -0.11428916
Cu       0.26752198       2.41659073      10.47246747       11       0.00719036       0.01660693       0.49475354
H        1.39480687      11.97721702      12.30028533       12       0.68940842       1.25814426      -2.23841429
H        2.11523618       4.02240928       5.01967466       13       0.40899667       0.09352145      -0.94325316
H        0.27186310      12.02928081       3.56454830       14       1.04771900      -1.78237510       3.90041733
H        3.24564871       4.06303161      13.65361034       15      -0.43228346      -0.54536605      -0.95433712
H        2.11466381      11.97262340      10.62155272       16       1.00680351      -1.70189977      -1.96851730
H        1.38716007       3.97999309       6.69507162       17       1.76876450       1.97785234      -2.17945099
H        3.22596300      11.95055299       2.03942368       18      -0.04662150       0.07748380      -0.38577586
H        0.27299203       3.99425409      15.25581758       19       0.50257057      -0.88832581       1.08816767
H        3.03542471       1.32953902      12.62869259       20       0.04342377       0.38650566      -0.34271109
H        0.54754491       9.28631768       4.48782607       21       0.75433737       1.95846450       0.15637465
H        2.45266043       1.33096514       3.98176793       22       0.49049136       0.76456976       0.64021266
H        1.22807826       9.28638630      13.16588599       23       0.35922664       0.20154673       0.54334223
H        3.02673786      15.80292988      13.75225635       24       1.54845119       1.14054418      -2.65893030
H        0.48773149       7.85341849       3.51684850       25       0.83306992      -0.93779624      -2.06711769
H        2.29899017      15.81835828       5.04116328       26       1.07975388      -1.45052052       2.68349409
H        1.20927734       7.94339135      12.26068726       27      -0.97274572      -2.22900367      -2.30527091
H        2.06437917      15.73289156       7.91516198       28       1.67479849      -2.46930504      -3.21764755
H        1.47181689       7.72924095       9.33654571       29       1.95356750       1.68341208      -2.68328500
H        3.29447229      15.73379805      16.71254925       30      -0.19773126       0.03127573      -0.51369423
H        0.21389202       7.74051507       0.65554846       31       0.00528729       0.10085816      -0.16566771
H        1.36117902       1.25954466       8.49661970       32       0.01983232       0.10434565      -0.18887126
H        2.34632219       9.21664792       8.62440390       33       0.75165045       3.09362745       0.30974212
H        0.45359476       1.25836833      17.14058068       34       0.58427471       3.70197153      -0.39785260
H        3.17690867       9.21268082      -0.02260816       35      -0.42414752       1.37102020       0.57229489