82
Lattice="11.0267153 0.0 0.0 -0.5078599251288318 15.950660052716385 0.0 0.10636455869434003 -1.9637966060179595 17.186052227875063" Properties=species:S:1:pos:R:3:spacegroup_kinds:I:1:forces:R:3 spacegroup="P 1" unit_cell=conventional occupancy="_JSON {\"0\": {\"Zn\": 1}, \"1\": {\"Zn\": 1}, \"2\": {\"H\": 1}, \"3\": {\"H\": 1}, \"4\": {\"H\": 1}, \"5\": {\"H\": 1}, \"6\": {\"H\": 1}, \"7\": {\"H\": 1}, \"8\": {\"H\": 1}, \"9\": {\"H\": 1}, \"10\": {\"H\": 1}, \"11\": {\"H\": 1}, \"12\": {\"H\": 1}, \"13\": {\"H\": 1}, \"14\": {\"H\": 1}, \"15\": {\"H\": 1}, \"16\": {\"H\": 1}, \"17\": {\"H\": 1}, \"18\": {\"H\": 1}, \"19\": {\"H\": 1}, \"20\": {\"C\": 1}, \"21\": {\"C\": 1}, \"22\": {\"C\": 1}, \"23\": {\"C\": 1}, \"24\": {\"C\": 1}, \"25\": {\"C\": 1}, \"26\": {\"C\": 1}, \"27\": {\"C\": 1}, \"28\": {\"C\": 1}, \"29\": {\"C\": 1}, \"30\": {\"C\": 1}, \"31\": {\"C\": 1}, \"32\": {\"C\": 1}, \"33\": {\"C\": 1}, \"34\": {\"C\": 1}, \"35\": {\"C\": 1}, \"36\": {\"C\": 1}, \"37\": {\"C\": 1}, \"38\": {\"C\": 1}, \"39\": {\"C\": 1}, \"40\": {\"C\": 1}, \"41\": {\"C\": 1}, \"42\": {\"C\": 1}, \"43\": {\"C\": 1}, \"44\": {\"C\": 1}, \"45\": {\"C\": 1}, \"46\": {\"C\": 1}, \"47\": {\"C\": 1}, \"48\": {\"C\": 1}, \"49\": {\"C\": 1}, \"50\": {\"C\": 1}, \"51\": {\"C\": 1}, \"52\": {\"C\": 1}, \"53\": {\"C\": 1}, \"54\": {\"C\": 1}, \"55\": {\"C\": 1}, \"56\": {\"S\": 1}, \"57\": {\"S\": 1}, \"58\": {\"N\": 1}, \"59\": {\"N\": 1}, \"60\": {\"N\": 1}, \"61\": {\"N\": 1}, \"62\": {\"N\": 1}, \"63\": {\"N\": 1}, \"64\": {\"O\": 1}, \"65\": {\"O\": 1}, \"66\": {\"O\": 1}, \"67\": {\"O\": 1}, \"68\": {\"O\": 1}, \"69\": {\"O\": 1}, \"70\": {\"O\": 1}, \"71\": {\"O\": 1}, \"72\": {\"O\": 1}, \"73\": {\"O\": 1}, \"74\": {\"O\": 1}, \"75\": {\"O\": 1}, \"76\": {\"O\": 1}, \"77\": {\"O\": 1}, \"78\": {\"F\": 1}, \"79\": {\"F\": 1}, \"80\": {\"F\": 1}, \"81\": {\"F\": 1}}" energy=-565.0921020507812 free_energy=-565.0921020507812 stress="-0.0011063171550631523 0.0006353383068926632 0.00016744590539019555 0.0006353383068926632 -0.001476913457736373 0.0004106487613171339 0.00016744590539019555 0.0004106487613171339 -0.0014261994510889053" pbc="T T T"
Zn       5.33662146       5.60562826       8.61949387        0      -0.02477681      -0.11961403       0.07483302
Zn       5.34589888       8.42040313       8.75152486        1      -0.01096958       0.10909258       0.01759443
H        3.99345946      10.61306920       7.39162543        2      -0.03086860      -0.05462320      -0.07703868
H        3.92685930      13.11562828       7.38674403        3      -0.02701350       0.01759147      -0.00382435
H        7.03616041      13.04754293      10.41156129        4      -0.03168115      -0.10104588      -0.01666896
H        3.77177371       0.94816307       6.90664654        5      -0.00459084       0.08257324       0.00971080
H        6.88078656       0.90569237       9.91783765        6       0.01099344       0.00238594       0.00356257
H        6.77132747       3.43862600       9.92265793        7      -0.02014250       0.00634767      -0.00341099
H        5.07936719       9.37533679       4.58040556        8       0.00052532      -0.03346855      -0.00188918
H        5.05372895       9.57722871       2.07503721        9      -0.00594055      -0.01008168       0.00889363
H        5.20379958       5.27670597       1.78058655       10      -0.01443637       0.00324439       0.02009313
H        5.36857237       8.71246680      15.56567472       11      -0.00185324       0.03425743      -0.01815851
H        5.28145701       4.40991213      15.31530070       12      -0.00707882       0.00445579      -0.02123204
H        5.32440871       4.58989735      12.80900272       13      -0.00228967      -0.01974776      -0.01945587
H        8.34443748       8.71487428       6.62416625       14       0.05617255      -0.01961861       0.09328230
H        2.26722740       8.97566140       6.80190171       15      -0.00584519      -0.01135156       0.05281626
H        1.12070105       5.45739215       9.83270041       16       0.00578211      -0.05411445       0.04308093
H        9.64516876       5.34942797       9.78155302       17       0.01099569      -0.01154179       0.00017551
H        8.19977988      12.12600962       6.01426464       18      -0.05504746       0.18848163       0.10950142
H        2.33481473       9.68577466       3.42766583       19      -0.11599892       0.01442626      -0.10524751
C        5.23123459       7.19269675       6.08715927       20      -0.02624661      -0.00754525      -0.01302505
C        2.72942924       7.15858710       8.63883552       21      -0.03698719       0.09475592      -0.00987174
C        5.38292522       6.75453910      11.27573505       22       0.04124090      -0.00179993       0.02946603
C        7.94493579       6.91870006       8.52461130       23       0.19010678       0.10309007      -0.08083726
C        4.63341952      11.19696069       8.04774858       24       0.07730016       0.00761083       0.05836189
C        4.60417105      12.57680824       8.04355586       25       0.11974419       0.07378042       0.11479753
C        5.47596334      13.26419716       8.91180127       26       0.03605145       0.05823984       0.00432667
C        6.34650798      12.54255751       9.73430378       27      -0.09233035       0.03342578      -0.08046073
C        6.29146241      11.15739816       9.65277854       28       0.08200306       0.04510021       0.06434253
C        4.44840973       1.45993826       7.58999587       29       0.11088190       0.01742941       0.02681430
C        5.32978709       0.75104698       8.40696596       30      -0.05241668      -0.14603099       0.02545750
C        6.19269231       1.44994157       9.27626878       31      -0.05283392      -0.10223195      -0.08285924
C        6.13485442       2.82895793       9.28189779       32       0.01998746       0.00155783       0.02207354
C        4.47837814       2.84594690       7.67795552       33       0.00144196      -0.03679630       0.07427460
C        5.15753142       7.23576409       4.59158646       34       0.00284269       0.05742410       0.03770453
C        5.08788267       8.48934885       3.94362065       35       0.00619674       0.06239656       0.09135956
C        5.06900441       8.60496932       2.56657620       36       0.03179174      -0.02136686       0.03666800
C        5.12100030       7.43812073       1.77571372       37       0.01161870      -0.16244188      -0.06598184
C        5.16623973       6.18080856       2.38829522       38       0.02021416       0.01902308       0.00100306
C        5.18667905       6.09444460       3.77444176       39      -0.01849670      -0.05991054       0.02373302
C        5.35790034       7.80370431      14.96624399       40       0.01099626      -0.09734102       0.05769351
C        5.31715987       6.55237722      15.59260659       41      -0.01536665       0.08262372       0.04050818
C        5.31040187       5.37511212      14.81291661       42       0.00539356       0.10299549       0.01623203
C        5.33672562       5.48136380      13.43429247       43      -0.00651538      -0.05043635      -0.02024445
C        5.37405414       6.72712270      12.77286971       44      -0.00228967      -0.05412811       0.01826787
C        5.38894533       7.87495355      13.58109231       45      -0.00888602       0.15806654      -0.12297535
C        9.44079332       6.96953071       8.40912283       46       0.02260242      -0.10295584       0.08186410
C       10.11969187       7.92072396       7.58185372       47      -0.07303467       0.12597047      -0.13021761
C       10.17901626       6.08425253       9.17969334       48       0.01825646      -0.00864585       0.00321636
C        9.43046213       8.76920866       6.68130986       49      -0.00493957      -0.31026602       0.30054781
C       10.08621285       9.67113891       5.86291140       50       0.08867552       0.00729508      -0.08709928
C        1.24197760       7.10485319       8.48628853       51      -0.22275488      -0.05037332       0.00872824
C        0.55065126       6.14887902       9.21497259       52       0.00023251       0.01557143      -0.01665352
C        0.52181106       7.99224187       7.62399592       53       0.14109704       0.16941969      -0.09721605
C        1.18131043       8.91582319       6.77273849       54      -0.10840055      -0.37947470       0.34481648
C        0.48651931       9.74666331       5.91249258       55      -0.11061294       0.10863487      -0.02180838
S        9.01938689      10.61948466       4.78079832       56       0.89729708       0.43425322       0.70749307
S        1.49896145      10.88929887       4.97318180       57      -0.59619278      -0.74285311      -0.23679972
N        5.46762663      10.48751837       8.85146079       58      -0.09702841      -0.07847169      -0.05792725
N        5.56257716      14.67139944       9.03210342       59      -0.02514519      -0.28817236      -0.03382461
N        5.25631257      -0.65798651       8.28772823       60       0.01998751       0.35021502      -0.01570091
N        5.28442684       3.52731324       8.49017167       61       0.00373422       0.05945209      -0.06191300
N        5.15035334       7.40908229       0.36776744       62      -0.01468237       0.00623655       0.20353377
N        5.27966671       6.58859358      17.00144181       63       0.00215938       0.02874599      -0.21891603
O        5.43316777       6.06547521       6.63983799       64      -0.00067702       0.05972075      -0.10428251
O        5.09592555       8.30524988       6.69608408       65       0.01313161      -0.04296011      -0.05702448
O        3.27108389       8.30492707       8.77607429       66       0.01834925      -0.04650724      -0.07504113
O        3.32549807       6.03385948       8.64714971       67       0.11037442       0.00231327       0.00211840
O        5.42160915       7.89060009      10.70651071       68      -0.00792608      -0.00456282       0.01666953
O        5.35073025       5.62346921      10.68350303       69      -0.00466154       0.06581187       0.01715399
O        7.41034606       5.77843964       8.70588909       70      -0.07632064       0.01576516       0.02413373
O        7.33412409       8.03738928       8.46590945       71      -0.07861939      -0.06875756      -0.02706017
O        9.01302440      12.08887949       5.47383699       72      -0.21541789       0.22297150       0.21621960
O        9.63489388      10.75922347       3.49435605       73       0.47737724      -0.10624859      -1.18403220
O        7.67535833      10.10022003       4.92244267       74      -1.19423926      -0.48222962      -0.01671451
O        1.53347371      10.24946380       3.49432655       75       0.27707690      -0.38671732      -0.48510852
O        0.82954248      12.15232782       4.87441014       76      -0.63120055       1.22453797       0.07670312
O        2.84747034      10.81648428       5.49580433       77       1.21920109       0.01670869       0.47177094
F        7.11004848      10.41989562      10.41934986       78       0.05432850      -0.08321221       0.09303421
F        3.64515497       3.56993281       6.91870436       79      -0.07986543       0.09537528      -0.10587461
F        5.23125096       4.84600060       4.30188909       80      -0.00040041       0.07416019      -0.03457320
F        5.42943385       9.11954008      13.03984509       81      -0.00314077      -0.10588996       0.06633723
82
Lattice="11.0267153 0.0 0.0 -0.5078599251288318 15.950660052716385 0.0 0.10636455869434003 -1.9637966060179595 17.186052227875063" Properties=species:S:1:pos:R:3:spacegroup_kinds:I:1:forces:R:3 spacegroup="P 1" unit_cell=conventional occupancy="_JSON {\"0\": {\"Zn\": 1}, \"1\": {\"Zn\": 1}, \"2\": {\"H\": 1}, \"3\": {\"H\": 1}, \"4\": {\"H\": 1}, \"5\": {\"H\": 1}, \"6\": {\"H\": 1}, \"7\": {\"H\": 1}, \"8\": {\"H\": 1}, \"9\": {\"H\": 1}, \"10\": {\"H\": 1}, \"11\": {\"H\": 1}, \"12\": {\"H\": 1}, \"13\": {\"H\": 1}, \"14\": {\"H\": 1}, \"15\": {\"H\": 1}, \"16\": {\"H\": 1}, \"17\": {\"H\": 1}, \"18\": {\"H\": 1}, \"19\": {\"H\": 1}, \"20\": {\"C\": 1}, \"21\": {\"C\": 1}, \"22\": {\"C\": 1}, \"23\": {\"C\": 1}, \"24\": {\"C\": 1}, \"25\": {\"C\": 1}, \"26\": {\"C\": 1}, \"27\": {\"C\": 1}, \"28\": {\"C\": 1}, \"29\": {\"C\": 1}, \"30\": {\"C\": 1}, \"31\": {\"C\": 1}, \"32\": {\"C\": 1}, \"33\": {\"C\": 1}, \"34\": {\"C\": 1}, \"35\": {\"C\": 1}, \"36\": {\"C\": 1}, \"37\": {\"C\": 1}, \"38\": {\"C\": 1}, \"39\": {\"C\": 1}, \"40\": {\"C\": 1}, \"41\": {\"C\": 1}, \"42\": {\"C\": 1}, \"43\": {\"C\": 1}, \"44\": {\"C\": 1}, \"45\": {\"C\": 1}, \"46\": {\"C\": 1}, \"47\": {\"C\": 1}, \"48\": {\"C\": 1}, \"49\": {\"C\": 1}, \"50\": {\"C\": 1}, \"51\": {\"C\": 1}, \"52\": {\"C\": 1}, \"53\": {\"C\": 1}, \"54\": {\"C\": 1}, \"55\": {\"C\": 1}, \"56\": {\"S\": 1}, \"57\": {\"S\": 1}, \"58\": {\"N\": 1}, \"59\": {\"N\": 1}, \"60\": {\"N\": 1}, \"61\": {\"N\": 1}, \"62\": {\"N\": 1}, \"63\": {\"N\": 1}, \"64\": {\"O\": 1}, \"65\": {\"O\": 1}, \"66\": {\"O\": 1}, \"67\": {\"O\": 1}, \"68\": {\"O\": 1}, \"69\": {\"O\": 1}, \"70\": {\"O\": 1}, \"71\": {\"O\": 1}, \"72\": {\"O\": 1}, \"73\": {\"O\": 1}, \"74\": {\"O\": 1}, \"75\": {\"O\": 1}, \"76\": {\"O\": 1}, \"77\": {\"O\": 1}, \"78\": {\"F\": 1}, \"79\": {\"F\": 1}, \"80\": {\"F\": 1}, \"81\": {\"F\": 1}}" energy=-565.120849609375 free_energy=-565.120849609375 stress="-0.0009921338642016053 0.0006093393894843757 0.00014715442375745624 0.0006093393894843757 -0.0012867082841694355 0.00045801603118889034 0.00014715442375745624 0.00045801603118889034 -0.0012366200098767877" pbc="T T T"
Zn       5.33800903       5.60346781       8.61823073        0      -0.02450177      -0.08671115       0.09891190
Zn       5.34623996       8.42251530       8.75024570        1      -0.00986743       0.08145431       0.02683586
H        3.99429098      10.61386686       7.39074591        2      -0.02376597      -0.05198396      -0.07239795
H        3.92814895      13.11612363       7.38750548        3      -0.03221147       0.01284720      -0.00561360
H        7.03772863      13.04709546      10.41197162        4      -0.08374391      -0.13252063      -0.07055569
H        3.77332479       0.94889477       6.90655167        5      -0.00605521       0.08419700       0.01630181
H        6.88101016       0.90614840       9.91748651        6      -0.00415303       0.01303326      -0.01452145
H        6.76974467       3.43781005       9.92254625        7       0.01693346       0.02705305       0.03072648
H        5.07901300       9.37570662       4.57951228        8       0.00121586      -0.03261369       0.01062145
H        5.05330187       9.57801231       2.07411105        9      -0.00533828      -0.03124747       0.02821327
H        5.20328354       5.27774996       1.77999851       10      -0.01649342      -0.03338228      -0.00930057
H        5.37043143       8.71426545      15.56673961       11      -0.00654247      -0.01639055      -0.04027195
H        5.28188081       4.40971379      15.31377614       12      -0.00929402       0.02231665      -0.02209368
H        5.32427987       4.59022232      12.80725664       13      -0.00269389       0.00240824      -0.00246110
H        8.34537076       8.71355686       6.62460327       14       0.03390786      -0.01621246       0.09062634
H        2.26750179       8.97578972       6.80095576       15       0.02670579      -0.01797242       0.06081676
H        1.12150426       5.45670204       9.83294115       16       0.00836726      -0.05249615       0.04433758
H        9.64555766       5.34844633       9.78088378       17       0.00368140      -0.01623575       0.00973858
H        8.20005817      12.12875260       6.01550402       18      -0.08840065       0.17567816       0.12366213
H        2.33311755       9.68731344       3.42861862       19       0.09994754      -0.13576381      -0.12708572
C        5.23138722       7.19184065       6.08737404       20      -0.03230451       0.12776434      -0.00066453
C        2.72806980       7.15966064       8.64009286       21       0.03304648       0.07382755      -0.03341938
C        5.38443029       6.75615026      11.27648143       22       0.01626956      -0.11354631      -0.04889911
C        7.94638624       6.92001952       8.52385061       23       0.16890511       0.04641176      -0.06608208
C        4.63469077      11.19701802       8.04754783       24       0.04890057      -0.00730845       0.03867260
C        4.60474774      12.57651841       8.04434750       25       0.11082798       0.07690570       0.09364150
C        5.47671447      13.26421247       8.91157801       26      -0.00513715       0.05020483      -0.03277713
C        6.34612445      12.54278153       9.73215160       27       0.01811655       0.00893691       0.04484495
C        6.29024354      11.15740149       9.65259877       28       0.15712848      -0.01031682       0.10513639
C        4.44925467       1.46021378       7.59126712       29       0.06821889       0.06179941      -0.01433578
C        5.32988654       0.75005607       8.40722629       30      -0.02623677      -0.10357593       0.03047040
C        6.19287735       1.44996856       9.27415328       31      -0.01030516      -0.10580930      -0.01084289
C        6.13510006       2.82865578       9.28222347       32      -0.02750200       0.02425939      -0.04765967
C        4.47769065       2.84754011       7.67793849       33       0.05725899      -0.04721755       0.12323785
C        5.15832328       7.23669082       4.59058359       34       0.00372813      -0.04828092       0.07498014
C        5.08802695       8.48913086       3.94389908       35       0.00553710       0.11222291       0.06849092
C        5.06888991       8.60575635       2.56738662       36       0.03443693      -0.05961804      -0.03919503
C        5.12097501       7.43751065       1.77515304       37       0.00105146      -0.07131135      -0.04616835
C        5.16487723       6.18079687       2.38680706       38       0.03815543       0.01447349       0.06962427
C        5.18751478       6.09304720       3.77335261       39      -0.03731631       0.08820072       0.00780411
C        5.35801709       7.80321007      14.96781584       40       0.02658318       0.06273679      -0.07944736
C        5.31760211       6.55393755      15.59141237       41      -0.02932704      -0.04739287       0.09813359
C        5.31005555       5.37569999      14.81199690       42       0.01079785       0.10203586       0.00752646
C        5.33643310       5.48221201      13.43331168       43      -0.00797105      -0.14052618       0.00867966
C        5.37412731       6.72619702      12.77295224       44       0.00989659       0.08563524      -0.00501382
C        5.38971663       7.87582645      13.58036526       45      -0.01633451       0.13029291      -0.04389787
C        9.44151961       6.96801538       8.40892531       46       0.02969179      -0.04221617       0.05824358
C       10.11864195       7.92130395       7.58102378       47       0.02002114       0.06656995      -0.08108394
C       10.17941603       6.08377001       9.18026278       48       0.02625975      -0.01598179      -0.00755489
C        9.43069255       8.76800526       6.68219821       49      -0.01295240      -0.25395370       0.24469754
C       10.08643732       9.67124924       5.86275006       50       0.07921364      -0.01650992      -0.06080481
C        1.24129247       7.10404616       8.48499488       51      -0.20257750      -0.06094315       0.05532866
C        0.55110543       6.14803536       9.21551958       52      -0.00115472       0.04118572      -0.04724567
C        0.52289599       7.99275679       7.62271103       53       0.06110513       0.10753034      -0.04282390
C        1.18265377       8.91379024       6.77455499       54      -0.20603295      -0.21227412       0.16459653
C        0.48519987       9.74711514       5.91051455       55      -0.00183930      -0.01155037       0.10980890
S        9.02187845      10.61981713       4.78344353       56       0.76191336       0.38324863       0.50697440
S        1.49720159      10.88714676       4.97269389       57      -0.51078463      -0.56719309      -0.21174248
N        5.46842115      10.48652126       8.85094186       58      -0.11037334      -0.04890484      -0.05923314
N        5.56332999      14.66912315       9.03220353       59      -0.00896822      -0.18817291      -0.01815826
N        5.25828104      -0.65702597       8.28892448       60      -0.01590528       0.27529311      -0.04875071
N        5.28599123       3.53005659       8.48971218       61      -0.03594837      -0.04640880      -0.07944076
N        5.15070267       7.40806290       0.36815476       62      -0.01222685       0.12890582       0.10366324
N        5.27901768       6.58941934      16.99937789       63       0.00371855      -0.08456625      -0.10798058
O        5.43386590       6.06539633       6.63965121       64      -0.00301514       0.04957855      -0.10454552
O        5.09598298       8.30681508       6.69737748       65       0.02535183      -0.16439977      -0.12684858
O        3.27143606       8.30519760       8.77580236       66      -0.01239201      -0.01787090      -0.06380516
O        3.32727189       6.03632687       8.64837724       67       0.08035405      -0.01475370       0.00157971
O        5.42294432       7.89137552      10.70632728       68      -0.00091332      -0.00136942       0.02407736
O        5.35031549       5.62319730      10.68315914       69       0.00952991       0.15590945       0.05940659
O        7.41223906       5.77858624       8.70462253       70      -0.08537808       0.05087972       0.01911196
O        7.33611803       8.03877791       8.46540568       71      -0.08462438      -0.07689118      -0.02326456
O        9.01077229      12.08982900       5.47304129       72      -0.16652092       0.23521525       0.19666028
O        9.63747686      10.76026354       3.49159491       73       0.37271726      -0.12578054      -0.96945846
O        7.67305076      10.09807571       4.92357408       74      -0.99510205      -0.40704012      -0.04383409
O        1.53588328      10.24659956       3.49219068       75       0.06204426      -0.21228987      -0.42093384
O        0.82762910      12.15521242       4.87461215       76      -0.52963972       1.03422272       0.07773603
O        2.85000239      10.81844394       5.49782854       77       1.03402817       0.02022276       0.39706704
F        7.11038697      10.41791229      10.41992132       78       0.00151724      -0.01730631       0.05039264
F        3.64315326       3.57152427       6.92008954       79      -0.06816146       0.08027975      -0.10282825
F        5.23127188       4.84744010       4.30029205       80       0.00560776      -0.00874607       0.00190047
F        5.43052281       9.12146941      13.04061461       81      -0.00268496      -0.14018105       0.06976232
82
Lattice="11.0267153 0.0 0.0 -0.5078599251288318 15.950660052716385 0.0 0.10636455869434003 -1.9637966060179595 17.186052227875063" Properties=species:S:1:pos:R:3:spacegroup_kinds:I:1:forces:R:3 spacegroup="P 1" unit_cell=conventional occupancy="_JSON {\"0\": {\"Zn\": 1}, \"1\": {\"Zn\": 1}, \"2\": {\"H\": 1}, \"3\": {\"H\": 1}, \"4\": {\"H\": 1}, \"5\": {\"H\": 1}, \"6\": {\"H\": 1}, \"7\": {\"H\": 1}, \"8\": {\"H\": 1}, \"9\": {\"H\": 1}, \"10\": {\"H\": 1}, \"11\": {\"H\": 1}, \"12\": {\"H\": 1}, \"13\": {\"H\": 1}, \"14\": {\"H\": 1}, \"15\": {\"H\": 1}, \"16\": {\"H\": 1}, \"17\": {\"H\": 1}, \"18\": {\"H\": 1}, \"19\": {\"H\": 1}, \"20\": {\"C\": 1}, \"21\": {\"C\": 1}, \"22\": {\"C\": 1}, \"23\": {\"C\": 1}, \"24\": {\"C\": 1}, \"25\": {\"C\": 1}, \"26\": {\"C\": 1}, \"27\": {\"C\": 1}, \"28\": {\"C\": 1}, \"29\": {\"C\": 1}, \"30\": {\"C\": 1}, \"31\": {\"C\": 1}, \"32\": {\"C\": 1}, \"33\": {\"C\": 1}, \"34\": {\"C\": 1}, \"35\": {\"C\": 1}, \"36\": {\"C\": 1}, \"37\": {\"C\": 1}, \"38\": {\"C\": 1}, \"39\": {\"C\": 1}, \"40\": {\"C\": 1}, \"41\": {\"C\": 1}, \"42\": {\"C\": 1}, \"43\": {\"C\": 1}, \"44\": {\"C\": 1}, \"45\": {\"C\": 1}, \"46\": {\"C\": 1}, \"47\": {\"C\": 1}, \"48\": {\"C\": 1}, \"49\": {\"C\": 1}, \"50\": {\"C\": 1}, \"51\": {\"C\": 1}, \"52\": {\"C\": 1}, \"53\": {\"C\": 1}, \"54\": {\"C\": 1}, \"55\": {\"C\": 1}, \"56\": {\"S\": 1}, \"57\": {\"S\": 1}, \"58\": {\"N\": 1}, \"59\": {\"N\": 1}, \"60\": {\"N\": 1}, \"61\": {\"N\": 1}, \"62\": {\"N\": 1}, \"63\": {\"N\": 1}, \"64\": {\"O\": 1}, \"65\": {\"O\": 1}, \"66\": {\"O\": 1}, \"67\": {\"O\": 1}, \"68\": {\"O\": 1}, \"69\": {\"O\": 1}, \"70\": {\"O\": 1}, \"71\": {\"O\": 1}, \"72\": {\"O\": 1}, \"73\": {\"O\": 1}, \"74\": {\"O\": 1}, \"75\": {\"O\": 1}, \"76\": {\"O\": 1}, \"77\": {\"O\": 1}, \"78\": {\"F\": 1}, \"79\": {\"F\": 1}, \"80\": {\"F\": 1}, \"81\": {\"F\": 1}}" energy=-565.14111328125 free_energy=-565.14111328125 stress="-0.0008171747322194278 0.0006310170283541083 0.00012159511970821768 0.0006310170283541083 -0.0012849775375798345 0.0004242736322339624 0.00012159511970821768 0.0004242736322339624 -0.0012012814404442906" pbc="T T T"
Zn       5.33893208       5.60377572       8.62050700        0      -0.03185887      -0.07397407       0.07544091
Zn       5.34782653       8.42457549       8.74955046        1      -0.03240060       0.06290329       0.03319168
H        3.99533609      10.61298620       7.38968772        2       0.00423543      -0.00967562      -0.03539071
H        3.92708035      13.11540670       7.38878837        3      -0.06775545       0.04663859      -0.04878971
H        7.03762864      13.04510913      10.41047950        4      -0.05412091      -0.09735997      -0.04390582
H        3.77540104       0.95111090       6.90549711        5       0.01961599       0.10829845       0.04715312
H        6.88072828       0.90611418       9.91819694        6      -0.01073989       0.02582538      -0.03262813
H        6.77184158       3.44000728       9.92224534        7      -0.04656449      -0.03495181      -0.02210364
H        5.08074254       9.37458299       4.58064000        8       0.00360184      -0.02063476       0.00569528
H        5.05355261       9.57638035       2.07373668        9      -0.00695894      -0.02826568       0.02611589
H        5.20312173       5.27733395       1.77977464       10      -0.01143130      -0.00842310       0.01416194
H        5.37166010       8.71353495      15.56431106       11      -0.00485668       0.04193486       0.00207485
H        5.28170530       4.41158706      15.31291052       12      -0.00748950      -0.03562373       0.01624432
H        5.32409095       4.59028257      12.80707276       13      -0.00073000      -0.03512113      -0.01532698
H        8.34640362       8.71262287       6.62365710       14       0.03668496      -0.02374829       0.09331816
H        2.26832609       8.97551084       6.80053049       15      -0.01756388      -0.02605446       0.05748501
H        1.12179324       5.45560887       9.83292459       16      -0.04243559       0.01491345      -0.01386240
H        9.64635830       5.34949890       9.78189412       17       0.01514886      -0.00963771       0.00730839
H        8.19774847      12.12995886       6.01664980       18       0.00233416       0.16831456       0.05961604
H        2.33294170       9.68645930       3.42628810       19       0.11611608      -0.14181097      -0.11730635
C        5.23242294       7.19128940       6.08796074       20      -0.05613043       0.19750047      -0.05488896
C        2.72623137       7.16078054       8.63899942       21       0.16561005       0.06879234       0.00383577
C        5.38300704       6.75384920      11.27596123       22       0.05314505       0.16540465      -0.03819275
C        7.94776088       6.92211567       8.52355998       23       0.06837338      -0.01423588      -0.05054498
C        4.63558208      11.19744014       8.04885143       24      -0.07357672       0.01216334      -0.09900568
C        4.60447590      12.57787537       8.04317545       25       0.18078601       0.00672367       0.18094552
C        5.47733894      13.26471231       8.91117052       26      -0.07921022       0.02707206      -0.11518377
C        6.34644171      12.54339973       9.73073382       27       0.02577524      -0.10442570       0.06946008
C        6.29036914      11.15678566       9.65460208       28       0.04734531       0.01884496      -0.02469316
C        4.45118442       1.46245152       7.59283050       29      -0.03127149      -0.06548801      -0.12292165
C        5.32955336       0.74886436       8.40599815       30       0.07682136      -0.01545881       0.12677744
C        6.19370281       1.45002081       9.27270618       31      -0.02846992      -0.11637554       0.00090069
C        6.13377923       2.82882851       9.28188463       32       0.05704817       0.07934281       0.01560962
C        4.47772546       2.84722270       7.67862182       33       0.02171138       0.08820012       0.09515911
C        5.15894073       7.23623769       4.59089210       34       0.01336903      -0.04213026       0.06779599
C        5.09010078       8.48905811       3.94396998       35      -0.01064356       0.07742959       0.05991384
C        5.06899748       8.60420781       2.56708828       36       0.04715622      -0.04115112      -0.02475591
C        5.12189802       7.43607161       1.77432553       37      -0.00237288      -0.00117010      -0.01762058
C        5.16692727       6.18125257       2.38741915       38       0.02361651      -0.06442703       0.02558234
C        5.18795246       6.09267255       3.77384658       39      -0.02854944       0.11861184      -0.00293210
C        5.35955237       7.80411211      14.96693307       40       0.01849546      -0.07256748      -0.05990312
C        5.31903056       6.55311856      15.59157065       41      -0.02248147       0.06704763       0.05357649