80
Lattice="8.75292022 0.0 0.0 3.5342904379937767 9.648227469540824 0.0 1.9003526208064225 1.6264293012734319 10.17439326580505" Properties=species:S:1:pos:R:3:spacegroup_kinds:I:1:forces:R:3 spacegroup="P 1" unit_cell=conventional occupancy="_JSON {\"0\": {\"Zn\": 1}, \"1\": {\"Zn\": 1}, \"2\": {\"H\": 1}, \"3\": {\"H\": 1}, \"4\": {\"H\": 1}, \"5\": {\"H\": 1}, \"6\": {\"H\": 1}, \"7\": {\"H\": 1}, \"8\": {\"H\": 1}, \"9\": {\"H\": 1}, \"10\": {\"H\": 1}, \"11\": {\"H\": 1}, \"12\": {\"H\": 1}, \"13\": {\"H\": 1}, \"14\": {\"H\": 1}, \"15\": {\"H\": 1}, \"16\": {\"H\": 1}, \"17\": {\"H\": 1}, \"18\": {\"H\": 1}, \"19\": {\"H\": 1}, \"20\": {\"H\": 1}, \"21\": {\"H\": 1}, \"22\": {\"C\": 1}, \"23\": {\"C\": 1}, \"24\": {\"C\": 1}, \"25\": {\"C\": 1}, \"26\": {\"C\": 1}, \"27\": {\"C\": 1}, \"28\": {\"C\": 1}, \"29\": {\"C\": 1}, \"30\": {\"C\": 1}, \"31\": {\"C\": 1}, \"32\": {\"C\": 1}, \"33\": {\"C\": 1}, \"34\": {\"C\": 1}, \"35\": {\"C\": 1}, \"36\": {\"C\": 1}, \"37\": {\"C\": 1}, \"38\": {\"C\": 1}, \"39\": {\"C\": 1}, \"40\": {\"C\": 1}, \"41\": {\"C\": 1}, \"42\": {\"C\": 1}, \"43\": {\"C\": 1}, \"44\": {\"C\": 1}, \"45\": {\"C\": 1}, \"46\": {\"C\": 1}, \"47\": {\"C\": 1}, \"48\": {\"C\": 1}, \"49\": {\"C\": 1}, \"50\": {\"C\": 1}, \"51\": {\"C\": 1}, \"52\": {\"C\": 1}, \"53\": {\"C\": 1}, \"54\": {\"C\": 1}, \"55\": {\"C\": 1}, \"56\": {\"C\": 1}, \"57\": {\"C\": 1}, \"58\": {\"N\": 1}, \"59\": {\"N\": 1}, \"60\": {\"N\": 1}, \"61\": {\"N\": 1}, \"62\": {\"O\": 1}, \"63\": {\"O\": 1}, \"64\": {\"O\": 1}, \"65\": {\"O\": 1}, \"66\": {\"O\": 1}, \"67\": {\"O\": 1}, \"68\": {\"O\": 1}, \"69\": {\"O\": 1}, \"70\": {\"O\": 1}, \"71\": {\"O\": 1}, \"72\": {\"F\": 1}, \"73\": {\"F\": 1}, \"74\": {\"F\": 1}, \"75\": {\"F\": 1}, \"76\": {\"F\": 1}, \"77\": {\"F\": 1}, \"78\": {\"F\": 1}, \"79\": {\"F\": 1}}" energy=-80.07605743408203 free_energy=-80.07605743408203 stress="-1.1750520467758179 0.2678930461406708 0.43935519456863403 0.2678930461406708 -1.9251139163970947 -0.1678442507982254 0.43935519456863403 -0.1678442507982254 -1.0423121452331543" pbc="T T T"
Zn       9.32071014       8.81477182       8.23606596        0      17.10591316      -3.61409616     -10.39282322
Zn       5.26016517       2.57614645       2.96611000        1       3.21288991      -5.24131203       3.87553549
H       10.68043708      10.40620183       6.69189270        2      -5.62665415       4.08075905       2.02345610
H        2.40960137       0.99766580       3.89713227        3      -1.47747779       0.12189361       3.86409140
H        8.62993026       2.51601000       5.41205652        4      -0.87063050       2.44622087      -0.95847332
H        4.51395907       8.35790703       3.37671973        5       0.64429176      -4.57722521       3.78856993
H        9.58999410       3.15443811       7.98240828        6       1.35469460      -1.47886062      -5.86569500
H        4.63997350       7.98960632       2.25996140        7      -1.05136526       0.18462592       1.02823091
H       10.89537032      10.16244446      -0.35742622        8       0.07114518       3.17617822       5.33962202
H        2.80711714       1.56401230      10.57417983        9     -16.58377266       3.97986841      31.96921921
H        9.55910155       7.80488018       1.22424392       10       6.99652767       6.14211845       8.69419670
H        4.81143093       1.93223933       8.80334442       11       3.65421438      -1.12035167      -4.28701925
H        8.47717363       8.08319016       4.15651356       12      -0.81451571       0.31668669       0.36027771
H        6.44387396       3.42934187       7.58023782       13       4.96098852     -10.50471878       3.91104317
H        4.71340928       6.31524313       1.65408664       14       0.59009463       0.90831625       1.50979483
H        7.64844945       4.54103202       7.36937958       15      16.64340210       8.47061253     -12.15639305
H        6.89028995       7.43293051       9.86731774       16      -1.24672318       5.94000435       1.08015192
H        6.30718236       4.51859303      -0.54536613       17      12.01143646      -1.96233249       4.10580969
H        4.07947796       1.01077439       6.53674964       18      -1.02685142      -2.19594216       3.81507564
H        8.86513291       9.60591211       3.06516198       19       1.62489891       4.49030924      -9.59596443
H        6.77169990       9.35838961       7.75366687       20       2.02275681      28.20736122      -4.21252346
H        8.01228099       0.45905097       4.20347780       21      -4.56616354      -2.50430584       1.29054081
C       10.66079550      10.08384389       7.63011002       22      -2.49062252       1.80772436       6.45910645
C        2.15184261       1.04945622       2.49606056       23      -9.40884018      22.95119858      17.82099915
C        9.19532841       2.03383439       8.13815154       24       0.44948497       3.59965849       1.25116384
C        6.18976739       9.98523072       2.11496472       25      17.14618683     -19.96580124     -17.83696747
C        9.92649736       0.96118799       9.13790899       26      -9.11981964      -0.03231812       5.39800549
C        4.34441195      10.40159155       0.65029363       27      -7.33684587      15.91856289       3.79785967
C       12.26516570       9.96523294      10.30249138       28       4.83880043       6.72266769       0.59151471
C        1.18006859      -0.38144077      -0.19024088       29      16.75240517     -25.39398766     -37.24483109
C       10.26305438      10.11815468       9.59842463       30      -3.08554983       3.21277547     -11.56419182
C        3.74397077       1.77676893       0.50051545       31      -2.95232964     -95.98991394      54.82273102
C       10.74810688       9.16551241      10.20771669       32     -39.41542053      22.03590393     -39.80687332
C        4.38216976       2.27406391       0.43642878       33    -920.11907959     616.87231445     696.94079590
C        9.33641630       7.22974663       0.52236473       34      38.43802643     -32.02248383      31.21138382
C        5.42692864       3.94104814       9.65345250       35    -170.17468262      67.73725128    -173.05937195
C        7.77301550       7.19055852       1.95170267       36      -1.61075580      -2.09720206       0.72896147
C        7.60394097       3.91221367       7.87960349       37       4.17873240      -8.76582336      -7.18808746
C        6.45506416       6.31402554       0.66522535       38      17.46623230      41.33911896      26.38190269
C        7.54970336       5.71948904       9.04707236       39       8.11915112       5.84820366      -6.60147858
C        6.16196443       5.65573436       0.19850012       40     -27.48254776     -45.70867538     -15.29831600
C        7.08944154       5.54109611      10.84271790       41      -6.16784954      -8.45367622       1.76895928
C        5.42752895       7.32873132       6.11347273       42     202.06204224    2408.01367188     214.90760803
C        9.10375967       3.06962297       2.63901148       43     -23.09699249      30.78836823      -9.94695091
C        4.67536013       6.59200206       7.74344165       44     -35.45602417      69.36321259     143.38810730
C       10.01957717       5.00972988       2.67357136       45      -2.73048759      18.95640945       5.58484650
C        5.41650315       6.73271970       6.05753534       46     -79.68549347   -2255.04150391    -388.24722290
C        9.42865701       4.29166032       3.58232774       47      -4.34217119      -1.59023786       2.35921049
C        4.53250269       6.02221390       6.92269652       48    -146.92559814      27.78740311      65.66702271
C        9.71154193       4.67663777       1.97778346       49     -21.18763733     -12.50046921     -17.64440536
C        3.31178024       4.40665097       5.70282353       50      21.89770508       4.50020456      13.31833267
C        9.19339684       5.53197789       5.31320878       51      -0.13722634      -6.03068256      -1.66182292
C        3.92717079       5.62026813       6.83848467       52     -61.96348953     -81.78276825      -6.95112228
C       10.50797730       5.03043561       3.37130538       53      14.62885475       4.31840372      22.26264381
C        3.34207030       5.35361899       7.57305594       54     -25.20804596     -52.73688126      36.20404816
C       11.81152420       7.04211595       2.53009989       55       6.61049223       0.92608696       9.23799515
C        4.66315238       3.93703144       3.89758051       56     -42.09587097      86.94067383     -48.94339371
C        9.46005426       8.09278054       5.59528726       57       1.10922956      -0.82464480       0.74931324
N       11.27857704       9.04483336       7.33472489       58       0.25607347      -3.43471193       4.96802759
N        4.62735543       1.01241220       1.81333019       59      -5.58826113      29.67975426      -9.08123684
N        8.02250609       9.56521270      10.46684738       60       4.31550789      -3.13980508      -0.87165093
N        4.87851144       2.01904380       0.19191217       61    1084.08569336    -637.83123779    -574.36535645
O        6.60035857       8.65815496       7.72642249       62     -12.00237274     -62.12593460      -0.26121759
O        7.20065065       4.28429149       3.36979409       63       4.06767654       3.01561761       4.75815296
O        5.16438487       9.98351590       7.02040820       64      -6.49015427      -6.39764690      -3.44953203
O        9.55244224       2.31568410       3.02558663       65      11.72569275     -21.72801971       4.40711212
O        5.58014018       4.52240185       2.67670946       66       1.40654385      -1.63136196      -0.11737132
O       10.27993912       6.65918074       7.59653397       67       0.24524617      -1.05639338      -1.63583040
O        4.98816600       3.41244163       4.24271086       68      45.95474243     -77.79713440      66.43994904
O        8.33096741       7.94629968       5.18283489       69      -1.41744006      -6.91671658      -1.28070045
O        7.99040924      11.53832606       7.53111372       70       0.87210965      -4.93646669      -4.02779436
O        6.77974708      -0.14290612       4.01632901       71       4.17433929       3.37604952       5.13802528
F        5.83516661       5.83775977       5.53343910       72      61.71140289     -47.04323959    -104.31741333
F        7.30462458       5.81386094       5.98053297       73      53.52892303       0.23855114     -10.10328007
F        3.55845692       2.66821814       6.45119299       74       6.08533478       8.16842365      -3.55195475
F       11.10986816       8.20482940       3.41944661       75       6.82148457      -8.06900597       3.43932629
F       11.43184380       6.16044916       8.75602290       76     -13.03498077       2.74827242      16.62659264
F        3.60982139       5.25690743       0.66345726       77      -3.66553807       0.15257072      -0.81321132
F       12.53286259       8.17330682       9.51888992       78       0.77102470      -3.02269554       0.02610457
F        1.78243473       4.40074748       0.62164759       79       7.04363060      -8.21703815       0.02887201
80
Lattice="8.75292022 0.0 0.0 3.5342904379937767 9.648227469540824 0.0 1.9003526208064225 1.6264293012734319 10.17439326580505" Properties=species:S:1:pos:R:3:spacegroup_kinds:I:1:forces:R:3 spacegroup="P 1" unit_cell=conventional occupancy="_JSON {\"0\": {\"Zn\": 1}, \"1\": {\"Zn\": 1}, \"2\": {\"H\": 1}, \"3\": {\"H\": 1}, \"4\": {\"H\": 1}, \"5\": {\"H\": 1}, \"6\": {\"H\": 1}, \"7\": {\"H\": 1}, \"8\": {\"H\": 1}, \"9\": {\"H\": 1}, \"10\": {\"H\": 1}, \"11\": {\"H\": 1}, \"12\": {\"H\": 1}, \"13\": {\"H\": 1}, \"14\": {\"H\": 1}, \"15\": {\"H\": 1}, \"16\": {\"H\": 1}, \"17\": {\"H\": 1}, \"18\": {\"H\": 1}, \"19\": {\"H\": 1}, \"20\": {\"H\": 1}, \"21\": {\"H\": 1}, \"22\": {\"C\": 1}, \"23\": {\"C\": 1}, \"24\": {\"C\": 1}, \"25\": {\"C\": 1}, \"26\": {\"C\": 1}, \"27\": {\"C\": 1}, \"28\": {\"C\": 1}, \"29\": {\"C\": 1}, \"30\": {\"C\": 1}, \"31\": {\"C\": 1}, \"32\": {\"C\": 1}, \"33\": {\"C\": 1}, \"34\": {\"C\": 1}, \"35\": {\"C\": 1}, \"36\": {\"C\": 1}, \"37\": {\"C\": 1}, \"38\": {\"C\": 1}, \"39\": {\"C\": 1}, \"40\": {\"C\": 1}, \"41\": {\"C\": 1}, \"42\": {\"C\": 1}, \"43\": {\"C\": 1}, \"44\": {\"C\": 1}, \"45\": {\"C\": 1}, \"46\": {\"C\": 1}, \"47\": {\"C\": 1}, \"48\": {\"C\": 1}, \"49\": {\"C\": 1}, \"50\": {\"C\": 1}, \"51\": {\"C\": 1}, \"52\": {\"C\": 1}, \"53\": {\"C\": 1}, \"54\": {\"C\": 1}, \"55\": {\"C\": 1}, \"56\": {\"C\": 1}, \"57\": {\"C\": 1}, \"58\": {\"N\": 1}, \"59\": {\"N\": 1}, \"60\": {\"N\": 1}, \"61\": {\"N\": 1}, \"62\": {\"O\": 1}, \"63\": {\"O\": 1}, \"64\": {\"O\": 1}, \"65\": {\"O\": 1}, \"66\": {\"O\": 1}, \"67\": {\"O\": 1}, \"68\": {\"O\": 1}, \"69\": {\"O\": 1}, \"70\": {\"O\": 1}, \"71\": {\"O\": 1}, \"72\": {\"F\": 1}, \"73\": {\"F\": 1}, \"74\": {\"F\": 1}, \"75\": {\"F\": 1}, \"76\": {\"F\": 1}, \"77\": {\"F\": 1}, \"78\": {\"F\": 1}, \"79\": {\"F\": 1}}" energy=34726.8828125 free_energy=34726.8828125 stress="33.29930114746094 -44.24827575683594 71.6839599609375 -44.24827575683594 -248.2920379638672 -65.0616455078125 71.6839599609375 -65.0616455078125 -241.1096954345703" pbc="T T T"
Zn       9.34812635       8.68936354       7.39973292        0   -5512.52978516   -7422.17529297   -5112.38769531
Zn       6.23429324       3.18376323       3.57406939        1     618.08081055   -3633.86669922    -960.48199463
H       10.94952913       9.59589647       5.72146662        2   -3924.47778320   -3582.52319336     456.46685791
H        2.80813895       0.17840616       3.10760098        3     365.59179688     917.05249023     346.37341309
H        9.53250808       3.09499337       6.30732711        4   -1486.90661621    1093.34826660     373.83752441
H        4.15729710       9.02373443       2.38520398        5   -1023.04754639    1256.96850586   -2288.95727539
H        9.70227859       2.24546758       6.98718089        6   -3515.90429688    8189.53662109     324.22784424
H        5.27686874       8.10383454       2.22194347        7    -828.46020508    1381.43298340   -2393.28808594
H       10.45267205       9.66458534      -0.98161202        8    -958.40704346    1749.80004883    1120.07824707
H        1.93548289       1.50649844      10.98961574        9     -25.70393372      -7.11541653     -23.55932617
H        8.86990019       7.04440102       0.67953847       10     -82.65331268      96.05010986     175.59860229
H        5.51028907       1.05745307       9.68789100       11      27.95993042      18.64023972     -63.36318588
H        9.03742439       7.50098295       3.72047102       12    3263.30029297    3071.97265625   -2355.94018555
H        7.44308182       3.65718482       7.42010430       13    1009.08612061   -7905.60449219    -808.38757324
H        5.69199184       5.49105705       1.59670617       14    -892.33105469    -105.24780273   -1453.34130859
H        7.39437085       5.50253267       6.38058155       15    6220.68408203   -1090.65258789    5456.99267578
H        7.42463850       8.21040318      10.86575759       16     351.48175049    -458.61172485    1137.46166992
H        6.97704845       3.78569497      -0.87699705       17    3765.83886719   -2009.59997559    3924.74169922
H        4.67055565       1.06058016       7.19039885       18   -3048.72070312   -8182.67041016   -2549.70629883
H        9.65511326       9.06731769       2.11880455       19      34.96678925      20.38835716     -88.83528900
H        6.33982076       9.07396605       8.19149133       20    6562.21777344   11733.55273438   19213.86328125
H        8.83547466      -0.43646352       3.79076177       21     831.49389648     -54.22734070    1029.95092773
C        9.93459027      10.95418185       7.85461166       22    -855.82849121    5710.92773438   -2071.22241211
C        2.64399703       1.52528948       3.45900632       23    -476.57485962    -292.59082031    2192.48559570
C        8.95620124       1.90308584       7.13840593       24    2683.13891602   -3638.25854492   -1181.61083984
C        5.80860293       9.03656212       1.48573577       25    -561.30987549    1933.54162598   -3372.31103516
C        8.95722528       1.03834799      10.05449998       26    1380.26013184   -2347.84960938   -2214.52563477
C        3.38471703      11.38735784       0.73019520       27      52.12187958      45.50122070     -74.25001526
C       11.48766757       9.87236749      11.26227452       28      15.79623222     170.35054016     -80.41519165
C        1.39143140      -0.77188299       0.80036478       29     -29.52397346      36.55641937    -100.47709656
C       11.26113534       9.30623899       9.11353852       30    1875.40136719    1366.30725098     -60.79312134
C        4.67855027       1.38348854       0.69343603       31     -59.82101822     134.09907532      12.88404560
C        9.89746872       8.74893946       9.47865043       32    1407.00085449    2169.58496094    1733.27941895
C        4.90306613       1.32182719      -0.04027778       33    -228.52621460    -201.42327881   -1385.39685059
C        9.47126023       7.65767556       0.73271842       34      27.54583549    -131.88928223    -283.21328735
C        4.89387673       3.70529306       8.68582980       35     -82.22329712   -4360.32080078     832.00183105
C        6.83484805       8.09303996       1.78668475       36    -474.74838257     303.60549927   -1230.65100098
C        8.35952855       3.05673866       7.09699135       37   -1342.84997559   -3473.17016602   -1267.26696777
C        6.29897973       6.66355258       1.66516861       38    -672.58251953   -1606.97985840   -1345.19128418
C        8.47445816       6.56377334       8.24654741       39    3416.79589844    3777.05175781    3931.09619141
C        7.14105822       6.41809851      -0.50017909       40   -2169.42968750    2154.62573242    -734.39892578
C        6.13294935       5.27425309      11.68086262       41       8.51341629    -790.56683350    3087.08691406
C        5.59161407       6.87721401       6.85104969       42  -87862.01562500 -110931.14843750   61571.59375000
C       10.00497773       2.53064606       1.65976570       43     -31.51876068      87.46720123     -88.41020203
C        5.54576687       6.02048387       6.83054400       44   12417.63281250   67916.75000000    -148.48046875
C       10.90977433       5.44376936       2.30645061       45    -731.76440430    -106.44229126   -1652.85778809
C        6.01618417       7.11950244       6.39279150       46   66916.79687500  370195.06250000  -23592.29296875
C       10.38991923       5.20156551       3.38014296       47     490.03994751   -2899.31665039   -3541.46411133
C        3.53297625       6.60233244       7.26744574       48    -497.23059082    8386.10351562    8361.51757812
C       10.29547337       4.47476898       2.82861067       49     270.09109497     779.67767334   -1716.89733887
C        3.79057828       5.04731555       5.82266189       50     810.98315430  -10916.32031250   -2953.82275391
C        8.41448560       5.04278487       6.30904880       51   -1855.94677734  -11096.12988281   -3759.44140625
C        3.97863525       4.83506443       6.87079356       52    2113.50341797   -6565.65869141   -2221.13159180
C       10.19989379       4.05757343       3.31820808       53    -649.75988770   -1721.35742188    1847.74121094
C        3.73145621       6.25141360       6.97209134       54  -21662.69140625    5254.33496094   11982.69824219
C       12.46068256       6.04495868       1.57154574       55       0.63368618    -126.40844727      74.07515717
C        4.36995680       2.93966579       3.25228643       56    2918.38891602    3505.82836914    3930.58349609
C        9.61467404       7.34693153       6.47481239       57   -4618.79443359    4754.18505859     528.71728516
N       12.25337864       8.24360913       6.73020492       58    4027.51171875    4632.43310547     -31.73333740
N        4.99220380       0.02666427       0.96853210       59     -29.47444344    -157.35310364      53.72263718
N        8.99075255      10.35065970      10.46578719       60      73.44068909     -72.34360504    -191.04737854
N        4.51953004       1.22384858       1.16292011       61    -132.72271729     -18.26181030     340.58898926
O        6.59778521       8.94498458       7.58038214       62    4527.01171875   12832.76953125   11020.05078125
O        7.81266399       4.16664646       2.47211554       63    1007.97949219    -168.12908936   -2493.55249023
O        4.92421838       9.11743579       7.27567769       64   -2985.99243164   15690.11914062    3335.79492188
O        9.23777686       2.64098458       3.99796929       65    2421.52514648   -2492.78002930   -1622.97485352
O        5.20310963       5.27194510       2.51089273       66    -282.77343750    1658.94995117     995.34973145
O        9.88552067       5.68130217       7.52481281       67    1881.48095703    2860.23632812     250.68746948
O        4.01960274       2.44210930       4.86992493       68    -947.31127930     416.15240479   -1504.43591309
O        7.47389285       7.91069073       5.19607392       69    5123.25976562  -10134.03613281   -2197.35595703
O        8.12597853      11.78069876       6.78834174       70    1566.23083496    2656.82153320     870.60845947
O        5.85890103      -0.60762226       4.49050166       71     295.74053955     478.06585693     425.47219849
F        6.02689126       6.83344016       6.31007242       72  242674.87500000 -519003.31250000 -136800.31250000
F        6.70536377       6.71569317       6.23056036       73 -218499.87500000  170592.68750000   53666.11328125
F        3.04076227       1.93458117       7.41602625       74    2017.20007324    3729.80078125     635.34045410
F       11.98250019       7.21643312       3.60417759       75    1219.19799805    2451.09497070    1856.84472656
F       11.83114962       6.37657065       7.76560262       76     258.68838501   -1331.85656738   -2894.92016602
F        2.74844743       6.01156059       0.17079968       77   -2766.97998047   -1212.79626465    2315.26416016
F       12.27050768       8.10706532       8.55900313       78  -13535.09960938    1145.17395020    8838.90722656
F        2.31422057       3.45273686      -0.12577725       79   -1606.95861816    2894.35742188    2661.04077148
