68
Lattice="8.00492096 0.0 0.0 -9.05168051316855e-05 10.726212299618071 0.0 9.740178038813175e-05 0.0001475529512332403 13.20315825881623" Properties=species:S:1:pos:R:3:spacegroup_kinds:I:1:forces:R:3 spacegroup="P 1" unit_cell=conventional occupancy="_JSON {\"0\": {\"Cd\": 1}, \"1\": {\"Cd\": 1}, \"2\": {\"Cd\": 1}, \"3\": {\"Cd\": 1}, \"4\": {\"H\": 1}, \"5\": {\"H\": 1}, \"6\": {\"H\": 1}, \"7\": {\"H\": 1}, \"8\": {\"H\": 1}, \"9\": {\"H\": 1}, \"10\": {\"H\": 1}, \"11\": {\"H\": 1}, \"12\": {\"C\": 1}, \"13\": {\"C\": 1}, \"14\": {\"C\": 1}, \"15\": {\"C\": 1}, \"16\": {\"C\": 1}, \"17\": {\"C\": 1}, \"18\": {\"C\": 1}, \"19\": {\"C\": 1}, \"20\": {\"C\": 1}, \"21\": {\"C\": 1}, \"22\": {\"C\": 1}, \"23\": {\"C\": 1}, \"24\": {\"C\": 1}, \"25\": {\"C\": 1}, \"26\": {\"C\": 1}, \"27\": {\"C\": 1}, \"28\": {\"S\": 1}, \"29\": {\"S\": 1}, \"30\": {\"S\": 1}, \"31\": {\"S\": 1}, \"32\": {\"S\": 1}, \"33\": {\"S\": 1}, \"34\": {\"S\": 1}, \"35\": {\"S\": 1}, \"36\": {\"S\": 1}, \"37\": {\"S\": 1}, \"38\": {\"S\": 1}, \"39\": {\"S\": 1}, \"40\": {\"S\": 1}, \"41\": {\"S\": 1}, \"42\": {\"S\": 1}, \"43\": {\"S\": 1}, \"44\": {\"S\": 1}, \"45\": {\"S\": 1}, \"46\": {\"S\": 1}, \"47\": {\"S\": 1}, \"48\": {\"S\": 1}, \"49\": {\"S\": 1}, \"50\": {\"S\": 1}, \"51\": {\"S\": 1}, \"52\": {\"N\": 1}, \"53\": {\"N\": 1}, \"54\": {\"N\": 1}, \"55\": {\"N\": 1}, \"56\": {\"N\": 1}, \"57\": {\"N\": 1}, \"58\": {\"N\": 1}, \"59\": {\"N\": 1}, \"60\": {\"N\": 1}, \"61\": {\"N\": 1}, \"62\": {\"N\": 1}, \"63\": {\"N\": 1}, \"64\": {\"N\": 1}, \"65\": {\"N\": 1}, \"66\": {\"N\": 1}, \"67\": {\"N\": 1}}" energy=-407.505859375 free_energy=-407.505859375 stress="-0.001058933325111866 0.00011745383380912244 -2.7381091058487073e-05 0.00011745383380912244 -0.004311287309974432 7.995739724719897e-05 -2.7381091058487073e-05 7.995739724719897e-05 0.011802705936133862" pbc="T T T"
Cd       6.00267730       6.90426688       6.59999455        0       0.00267423       0.09563087       0.01080425
Cd       1.99872475       9.18495259       0.00039720        1       0.00815828      -0.07349197       0.00599900
Cd       1.99884379       3.82491378       6.60283137        2       0.00684302      -0.09579813      -0.00841053
Cd       6.00101021       1.53765014      -0.00047899        3       0.00577563       0.10399458      -0.00372860
H        4.21714992       9.04042442       2.35935089        4       0.02783984      -0.09040479      -0.07966062
H        0.21452103       7.04903827       4.23926828        5       0.02929016       0.10130621       0.08912887
H        7.79222695       9.04216213      10.84248472        6      -0.07134829      -0.18809649       0.08886088
H        3.78653968       7.04887364       8.96252494        7      -0.02907596       0.11052740      -0.09649027
H        3.78686308       1.68591089      10.84329906        8      -0.05812102       0.18914919       0.09399922
H        7.79341985       3.67772917       8.96291592        9      -0.04971145      -0.13923636      -0.09304710
H        0.21556679       1.68446826       2.36025471       10       0.08834803       0.24924785      -0.09024826
H        4.21816632       3.67782452       4.24108168       11       0.04393482      -0.13678491       0.08338068
C        5.67298456       6.44447350       3.37153538       12      -0.22898015      -0.05143702      -0.39557326
C        1.67175173       9.64606926       3.23027722       13      -0.27303451       0.07143217       0.45053780
C        6.33559690       6.44395775       9.83089192       14       0.26048315       0.01228207       0.38678351
C        2.33539782       9.64570867       9.97591253       15       0.23118165       0.09037757      -0.47796234
C        2.33553003       4.28412913       9.82996503       16       0.24438494      -0.00746268       0.40602091
C        6.33827714       1.08248187       9.97313117       17       0.17325729      -0.13574737      -0.39465594
C        1.66796079       4.28283025       3.37134854       18      -0.20859489       0.05965048      -0.35519421
C        5.66908776       1.08024797       3.23002666       19      -0.15926296      -0.12709343       0.35257092
C        4.60311503       7.28463992       1.31777371       20       0.24200502      -0.21543504       0.16325620
C        0.59973954       8.80620399       5.28643396       21       0.27344263       0.18568367      -0.25992236
C        7.40288913       7.28374223      11.88725517       22      -0.24992552      -0.15341853      -0.25505012
C        3.40176785       8.80608381       7.91700053       23      -0.28746688       0.21330282       0.26555720
C        3.40042163       3.44259716      11.88493821       24      -0.22047140       0.24712080      -0.08922641
C        7.40528884       1.92039492       7.91972007       25      -0.27382401      -0.21747893       0.15870722
C        0.60010587       3.44145636       1.31720653       26       0.26763627       0.28192300       0.11467990
C        4.60396852       1.92156783       5.28458378       27       0.23295213      -0.20464210      -0.16649526
S        6.50403193       5.49126611       4.54064589       28      -0.14781386       0.15980418      -0.07111512
S        2.49759384      10.60123275       2.06458378       29      -0.10653958      -0.13919252      -0.00028984
S        5.50693447       5.49084055       8.66390449       30       0.11921131       0.14036337       0.02610740
S        1.50444233      10.60032468      11.14002752       31       0.12473412      -0.14781088      -0.01898281
S        1.50212251       5.23652464       8.66442245       32       0.13489030      -0.14732951       0.04869724
S        5.50337335       0.12878077      11.13895240       33       0.14456385       0.16079821      -0.05180027
S        2.49821746       5.23789221       4.54104339       34      -0.15348217      -0.17915983      -0.07803748
S        6.50093806       0.12846879       2.06029143       35      -0.13050912       0.14186351       0.05965023
S        5.36181498       5.79563125       1.77365199       36       0.16743506      -0.01574178      -0.15215090
S        1.35965296      10.29577377       4.82744866       37       0.15211898      -0.00772561       0.18623951
S        6.64573848       5.79760214      11.42639731       38      -0.18108234      -0.08746058       0.21383595
S        2.64205369      10.29523419       8.37449422       39      -0.15860593      -0.00721654      -0.12320548
S        2.64523183       4.92955267      11.42921151       40      -0.20297828       0.09556375       0.14313665
S        6.64327731       0.43158935       8.37513695       41      -0.14090422       0.01661099      -0.15140636
S        1.36029223       4.92926061       1.77285670       42       0.17457017       0.05548012      -0.15366201
S        5.36114483       0.43495483       4.82414435       43       0.17061016      -0.11966304       0.25251564
S        4.03228417       7.62456530      12.96451234       44       0.20011503      -0.00462943       0.22820792
S        0.03113195       8.46905850       6.84367052       45       0.18766443      -0.00963491      -0.24093394
S        7.97212842       7.62474382       0.23872459       46      -0.19369987      -0.00668164      -0.18911350
S        3.96971957       8.46899433       6.36290290       47      -0.16548078      -0.01922189       0.16189417
S        3.97103220       3.10543765       0.23873867       48      -0.19181189      -0.01295794      -0.21745735
S        7.97178637       2.25985056       6.36241695       49      -0.18121704       0.00479678       0.21702640
S        0.02825203       3.10690763      12.96337846       50       0.18905616      -0.02010534       0.23519245
S        4.03443116       2.26185519       6.84115106       51       0.19110952      -0.00036953      -0.22318397
N        4.61955158       8.09610471       2.38945761       52      -0.11665060       0.28977907       0.50931305
N        0.61707764       7.99365745       4.21205055       53      -0.12170418      -0.20860900      -0.45358095
N        7.38582756       8.09620162      10.81383512       54       0.20038766       0.38301101      -0.45424464
N        3.38463967       7.99399920       8.98979070       55       0.14122257      -0.28328314       0.51068723
N        3.38563421       2.63409736      10.81422810       56       0.20029154      -0.53503680      -0.55780363
N        7.38788530       2.73297431       8.99057809       57       0.17674547       0.33803508       0.49869171
N        0.62002113       2.63340181       2.38888851       58      -0.28963715      -0.61961645       0.49323314
N        4.61932389       2.73146617       4.21270399       59      -0.12650292       0.37382305      -0.55774724
N        5.20526600       7.66830952       3.53524802       60       0.05965976       0.08744407      -0.19154626
N        1.20059965       8.42499186       3.06610745       61       0.05705546      -0.16917881       0.19535740
N        6.80481795       7.66835561       9.66769547       62      -0.09691544       0.06700110       0.16970453
N        2.80390535       8.42336678      10.13791528       63      -0.05866200      -0.13010827      -0.20584080
N        2.80406704       3.05870553       9.66741776       64      -0.11127263       0.00404888       0.16648436
N        6.80590848       2.30420212      10.13700606       65      -0.05519663       0.14058173      -0.16984336
N        1.19946862       3.05841693       3.53498255       66       0.12944843      -0.00535089      -0.14951311
N        5.20519573       2.30174998       3.06614333       67      -0.01861355       0.24197990       0.19086224
68
Lattice="8.00492096 0.0 0.0 -9.05168051316855e-05 10.726212299618071 0.0 9.740178038813175e-05 0.0001475529512332403 13.20315825881623" Properties=species:S:1:pos:R:3:spacegroup_kinds:I:1:forces:R:3 spacegroup="P 1" unit_cell=conventional occupancy="_JSON {\"0\": {\"Cd\": 1}, \"1\": {\"Cd\": 1}, \"2\": {\"Cd\": 1}, \"3\": {\"Cd\": 1}, \"4\": {\"H\": 1}, \"5\": {\"H\": 1}, \"6\": {\"H\": 1}, \"7\": {\"H\": 1}, \"8\": {\"H\": 1}, \"9\": {\"H\": 1}, \"10\": {\"H\": 1}, \"11\": {\"H\": 1}, \"12\": {\"C\": 1}, \"13\": {\"C\": 1}, \"14\": {\"C\": 1}, \"15\": {\"C\": 1}, \"16\": {\"C\": 1}, \"17\": {\"C\": 1}, \"18\": {\"C\": 1}, \"19\": {\"C\": 1}, \"20\": {\"C\": 1}, \"21\": {\"C\": 1}, \"22\": {\"C\": 1}, \"23\": {\"C\": 1}, \"24\": {\"C\": 1}, \"25\": {\"C\": 1}, \"26\": {\"C\": 1}, \"27\": {\"C\": 1}, \"28\": {\"S\": 1}, \"29\": {\"S\": 1}, \"30\": {\"S\": 1}, \"31\": {\"S\": 1}, \"32\": {\"S\": 1}, \"33\": {\"S\": 1}, \"34\": {\"S\": 1}, \"35\": {\"S\": 1}, \"36\": {\"S\": 1}, \"37\": {\"S\": 1}, \"38\": {\"S\": 1}, \"39\": {\"S\": 1}, \"40\": {\"S\": 1}, \"41\": {\"S\": 1}, \"42\": {\"S\": 1}, \"43\": {\"S\": 1}, \"44\": {\"S\": 1}, \"45\": {\"S\": 1}, \"46\": {\"S\": 1}, \"47\": {\"S\": 1}, \"48\": {\"S\": 1}, \"49\": {\"S\": 1}, \"50\": {\"S\": 1}, \"51\": {\"S\": 1}, \"52\": {\"N\": 1}, \"53\": {\"N\": 1}, \"54\": {\"N\": 1}, \"55\": {\"N\": 1}, \"56\": {\"N\": 1}, \"57\": {\"N\": 1}, \"58\": {\"N\": 1}, \"59\": {\"N\": 1}, \"60\": {\"N\": 1}, \"61\": {\"N\": 1}, \"62\": {\"N\": 1}, \"63\": {\"N\": 1}, \"64\": {\"N\": 1}, \"65\": {\"N\": 1}, \"66\": {\"N\": 1}, \"67\": {\"N\": 1}}" energy=-407.5426025390625 free_energy=-407.5426025390625 stress="-0.0012613271828740835 2.935828706540633e-05 1.1013130460924003e-05 2.935828706540633e-05 -0.0041940417140722275 0.00027981994207948446 1.1013130460924003e-05 0.00027981994207948446 0.011377859860658646" pbc="T T T"
Cd       6.00103501       6.90689271       6.59726994        0       0.00011352       0.08948695       0.01891581
Cd       1.99913728       9.18721517       0.00162187        1       0.00569546      -0.09373719       0.00319377
Cd       1.99720268       3.82265894       6.60098109        2       0.01584518      -0.09767476      -0.00216832
Cd       6.00356371       1.53913820      -0.00240505        3       0.00245949       0.11466487       0.00617451
H        4.21786470       9.04293347       2.36062870        4       0.03413376      -0.12610048      -0.08669154
H        0.21589714       7.05158098       4.24126617        5       0.01205951       0.08208816       0.09465384
H        7.79135410       9.04442758      10.84443791        6      -0.04703126      -0.14470296       0.08038926
H        3.78375175       7.05125511       8.96017706        7       0.05455215      -0.09384636      -0.07773519
H        3.78400707       1.68783085      10.84377010        8       0.01664660       0.01909159       0.08190204
H        7.79392275       3.67786025       8.96065640        9      -0.01574803      -0.05314274      -0.08200847
H        0.21669988       1.68679521       2.35917533       10       0.03047653       0.11210522      -0.07747703
H        4.21675587       3.67937551       4.24276516       11       0.08095281      -0.22598560       0.08025450
C        5.67313249       6.44684104       3.37254361       12      -0.24659935      -0.08436722      -0.48499295
C        1.67006617       9.64636551       3.23299700       13      -0.26463193      -0.01119745       0.35892946
C        6.33506415       6.44574158       9.83381569       14       0.25484928       0.02241540       0.34182349
C        2.33745571       9.64445069       9.97316006       15       0.13588488       0.21865198      -0.42248198
C        2.33540157       4.28580991       9.83279447       16       0.21666986      -0.00305897       0.34650058
C        6.34073423       1.08376667       9.97127364       17       0.12254803      -0.14548713      -0.33731323
C        1.66587623       4.28540267       3.37006913       18      -0.18673906       0.00425166      -0.36149555
C        5.66787223       1.07851258       3.23262568       19      -0.14285257      -0.03731573       0.27611703
C        4.60581557       7.28681926       1.31768019       20       0.23198731      -0.25836465       0.16152360
C        0.60106086       8.80893473       5.28458076       21       0.21586561       0.14132373      -0.18213952
C        7.40009491       7.28278958      11.88434075       22      -0.18056887      -0.08133441      -0.16175313
C        3.40050618       8.80791677       7.91717730       23      -0.27316320       0.12694091       0.37589464
C        3.39889373       3.44510639      11.88748271       24      -0.18822360       0.08344047      -0.26687807
C        7.40282826       1.91906818       7.91901577       25      -0.22259519      -0.08267896       0.25782809
C        0.59850659       3.44428080       1.31783671       26       0.27441525       0.17867410       0.20983195
C        4.60461638       1.92368029       5.28190481       27       0.24040160      -0.34073532      -0.03283718
S        6.50167361       5.49418887       4.53892451       28      -0.11951797       0.13135044      -0.03103526
S        2.49846641      10.59850255       2.06608488       29      -0.11258388      -0.12791452       0.01799364
S        5.50898483       5.49365297       8.66355264       30       0.12410174       0.14301884       0.02938717
S        1.50566607      10.59794251      11.14075834       31       0.13540353      -0.14880583      -0.04060898
S        1.50470599       5.23809236       8.66239520       32       0.14400801      -0.15798768       0.07470133
S        5.50444698       0.13134116      11.14120207       33       0.17390376       0.17372864      -0.10236768
S        2.49728337       5.23773566       4.53971103       34      -0.14695576      -0.16579212      -0.06516452
S        6.50012634       0.12908049       2.05850190       35      -0.15172318       0.15251650       0.09491264
S        5.36354376       5.79444960       1.77146228       36       0.15737651       0.06524378      -0.09747209
S        1.36054712      10.29497919       4.82897051       37       0.17200337       0.04061252       0.17017308
S        6.64299393       5.79553629      11.42805733       38      -0.15767029      -0.00970843       0.18518208
S        2.63968303      10.29673251       8.37476634       39      -0.12964469      -0.03436835      -0.15048748
S        2.64288628       4.92990355      11.43150072       40      -0.19528018       0.08991916       0.15009940
S        6.64373226       0.43356691       8.37330309       41      -0.16272904      -0.02416612      -0.12263310
S        1.36293255       4.92750629       1.77050331       42       0.16708294       0.10223494      -0.15140916
S        5.36348265       0.43404137       4.82693667       43       0.15219133      -0.07691170       0.21898647
S        4.03444355       7.62505501      12.96572871       44       0.18289553       0.01091260       0.20338222
S        0.02849037       8.46807400       6.84112153       45       0.20719126       0.00641840      -0.24448393
S        7.96951121       7.62708232       0.23983996       46      -0.21503891      -0.02479634      -0.27434045
S        3.96755955       8.47046203       6.36534883       47      -0.15137003      -0.02214964       0.11364618
S        3.97173088       3.10687956       0.23993890       48      -0.19359988      -0.01204544      -0.22395958
S        7.97004224       2.25789666       6.36374008       49      -0.16720553       0.01286496       0.17338902
S        0.03103511       3.10935876      12.96543451       50       0.15541053      -0.03406175       0.17835760
S        4.03543422       2.25977816       6.83892993       51       0.16777475       0.02061234      -0.20441884
N        4.61849798       8.09668588       2.39074328       52      -0.14170204       0.34035110       0.42239985
N        0.61589075       7.99652252       4.21082769       53      -0.15656096      -0.29427084      -0.40079027
N        7.38789129       8.09879179      10.81099935       54       0.16469297       0.25135636      -0.28662649
N        3.38715731       7.99184538       8.99232685       55       0.00812116       0.07282905       0.34860146
N        3.38856980       2.63250097      10.81136515       56       0.04190846      -0.14925952      -0.41169351
N        7.38999363       2.73539158       8.99275151       57       0.12702152       0.16438469       0.31225863
N        0.61748302       2.63253936       2.39117705       58      -0.20191340      -0.37682366       0.37471950
N        4.61923844       2.73041978       4.21334780       59      -0.16816956       0.59553230      -0.64989978
N        5.20376480       7.66976539       3.53295227       60       0.09162569       0.07888833      -0.07898582
N        1.19835728       8.42231706       3.06640705       61       0.13091616       0.00370628       0.16712409
N        6.80468927       7.67110413       9.67037461       62      -0.14054684       0.01047152       0.05899249
N        2.80166052       8.42435730      10.13564616       63       0.01524015      -0.28028378      -0.13101345
N        2.80147082       3.06028690       9.66622251       64      -0.04437964      -0.03531849       0.23019359
N        6.80538343       2.30711852      10.13459823       65      -0.05574939       0.11131862      -0.09159018
N        1.20131509       3.05878360       3.53302592       66       0.10547546      -0.00196981      -0.08748616
N        5.20696455       2.30423146       3.06702471       67       0.01059306       0.08495617       0.20400566
68
Lattice="8.00492096 0.0 0.0 -9.05168051316855e-05 10.726212299618071 0.0 9.740178038813175e-05 0.0001475529512332403 13.20315825881623" Properties=species:S:1:pos:R:3:spacegroup_kinds:I:1:forces:R:3 spacegroup="P 1" unit_cell=conventional occupancy="_JSON {\"0\": {\"Cd\": 1}, \"1\": {\"Cd\": 1}, \"2\": {\"Cd\": 1}, \"3\": {\"Cd\": 1}, \"4\": {\"H\": 1}, \"5\": {\"H\": 1}, \"6\": {\"H\": 1}, \"7\": {\"H\": 1}, \"8\": {\"H\": 1}, \"9\": {\"H\": 1}, \"10\": {\"H\": 1}, \"11\": {\"H\": 1}, \"12\": {\"C\": 1}, \"13\": {\"C\": 1}, \"14\": {\"C\": 1}, \"15\": {\"C\": 1}, \"16\": {\"C\": 1}, \"17\": {\"C\": 1}, \"18\": {\"C\": 1}, \"19\": {\"C\": 1}, \"20\": {\"C\": 1}, \"21\": {\"C\": 1}, \"22\": {\"C\": 1}, \"23\": {\"C\": 1}, \"24\": {\"C\": 1}, \"25\": {\"C\": 1}, \"26\": {\"C\": 1}, \"27\": {\"C\": 1}, \"28\": {\"S\": 1}, \"29\": {\"S\": 1}, \"30\": {\"S\": 1}, \"31\": {\"S\": 1}, \"32\": {\"S\": 1}, \"33\": {\"S\": 1}, \"34\": {\"S\": 1}, \"35\": {\"S\": 1}, \"36\": {\"S\": 1}, \"37\": {\"S\": 1}, \"38\": {\"S\": 1}, \"39\": {\"S\": 1}, \"40\": {\"S\": 1}, \"41\": {\"S\": 1}, \"42\": {\"S\": 1}, \"43\": {\"S\": 1}, \"44\": {\"S\": 1}, \"45\": {\"S\": 1}, \"46\": {\"S\": 1}, \"47\": {\"S\": 1}, \"48\": {\"S\": 1}, \"49\": {\"S\": 1}, \"50\": {\"S\": 1}, \"51\": {\"S\": 1}, \"52\": {\"N\": 1}, \"53\": {\"N\": 1}, \"54\": {\"N\": 1}, \"55\": {\"N\": 1}, \"56\": {\"N\": 1}, \"57\": {\"N\": 1}, \"58\": {\"N\": 1}, \"59\": {\"N\": 1}, \"60\": {\"N\": 1}, \"61\": {\"N\": 1}, \"62\": {\"N\": 1}, \"63\": {\"N\": 1}, \"64\": {\"N\": 1}, \"65\": {\"N\": 1}, \"66\": {\"N\": 1}, \"67\": {\"N\": 1}}" energy=-407.57275390625 free_energy=-407.57275390625 stress="-0.0012965897331014276 0.0002170320221921429 6.177275645313784e-05 0.0002170320221921429 -0.00375171285122633 0.00015414964582305402 6.177275645313784e-05 0.00015414964582305402 0.01128182839602232" pbc="T T T"
Cd       6.00089796       6.90981629       6.59747366        0       0.00287983       0.09454147       0.01392800
Cd       2.00054221       9.18857200       0.00368935        1      -0.00697785      -0.10337744      -0.01976449
Cd       2.00017739       3.82457762       6.59919411        2       0.00134152      -0.10366818       0.02038847
Cd       6.00357753       1.53704486      -0.00048619        3       0.00758164       0.12753224      -0.00570401
H        4.22015679       9.04014691       2.36029783        4      -0.06512849       0.10671750      -0.08457320
H        0.21358587       7.05382244       4.24425394        5       0.00067320       0.03262554       0.07239401
H        7.79374329       9.04207908      10.84501250        6       0.00108985      -0.00537269       0.06245036
H        3.78489550       7.04981828       8.96253961        7       0.03482512      -0.02997602      -0.09040496
H        3.78167139       1.68998866      10.84637142        8       0.07729342      -0.12860064       0.06540522
H        7.79386450       3.67999636       8.95994112        9      -0.00985403      -0.07087472      -0.09296514
H        0.21423711       1.68783875       2.35854879       10       0.00201359       0.03336754      -0.07110129
H        4.21663145       3.67683934       4.24427965       11       0.02779676      -0.08426280       0.07940216
C        5.67319551       6.44562767       3.36969659       12      -0.23008537       0.00874442      -0.37305462
C        1.66851598       9.64908792       3.23338924       13      -0.22952196      -0.04056346       0.36840987
C        6.33783890       6.44290273       9.83617415       14       0.22608799       0.13101482       0.27893937
C        2.33573211       9.64720170       9.97115669       15       0.21240458       0.02002490      -0.37976092
C        2.33686096       4.28641911       9.83535614       16       0.17585304       0.04418528       0.31354013
C        6.33798269       1.08331265       9.96919490       17       0.20103841       0.02576506      -0.30413431
C        1.66311124       4.28819994       3.36731391       18      -0.14704435      -0.07748044      -0.27858251
C        5.66558939       1.07637934       3.23531067       19      -0.14293291       0.09209132       0.21158448
C        4.60805416       7.28398359       1.31667801       20       0.17280008      -0.05289136       0.29384670
C        0.60163658       8.81161414       5.28242522       21       0.18522632       0.06817250      -0.15685782
C        7.39745432       7.28498037      11.88644166       22      -0.16736645      -0.03163214      -0.29527819
C        3.40238591       8.81073513       7.91912528       23      -0.26962501       0.03840333       0.38212851
C        3.39597141       3.44696306      11.88875134       24      -0.14114031      -0.02612586      -0.37797177
C        7.39993586       1.92162111       7.92067675       25      -0.17472675      -0.14709392       0.13215686
C        0.59770045       3.44465347       1.31996292       26       0.28099304       0.17380928       0.19736628
C        4.60733403       1.92088040       5.28156414       27       0.16791591      -0.18099153      -0.02418709
S        6.50180043       5.49344486       4.54058943       28      -0.14385916       0.15703183      -0.07099970
S        2.49974871      10.59595704       2.06414465       29      -0.12196852      -0.09899975       0.04117496
S        5.50885917       5.49547794       8.66172164       30       0.14545766       0.14506969       0.06676558
S        1.50807131      10.59968911      11.13975726       31       0.12058986      -0.13762271      -0.02182842
S        1.50745821       5.24027624       8.66321673       32       0.15357500      -0.18041748       0.08674295
S        5.50489407       0.13386074      11.14091632       33       0.15613189       0.14446571      -0.08960587
S        2.49528146       5.23817607       4.54235397       34      -0.16895136      -0.17108369      -0.12339240
S        6.49773052       0.13051632       2.05980013       35      -0.13957344       0.12266742       0.09103920
S        5.36570305       5.79666879       1.77199340       36       0.15720846       0.00872865      -0.14358513
S        1.36286074      10.29283598       4.83168266       37       0.18886429       0.12082413       0.14450748
S        6.64199972       5.79744280      11.42969328       38      -0.14666219      -0.02685100       0.21274376
S        2.63787889      10.29437894       8.37291082       39      -0.14424624       0.02727740      -0.14460894
S        2.64178074       4.93101811      11.43431076       40      -0.19568680       0.07763293       0.13271357
S        6.64120356       0.43346970       8.37258047       41      -0.15453763       0.01635590      -0.12851939
S        1.36569683       4.92931317       1.76794629       42       0.12683015       0.04427791      -0.13102661
S        5.36506036       0.43468066       4.82815207       43       0.15014693      -0.10745248       0.22985777
S        4.03606098       7.62795135      12.96551226       44       0.19199166      -0.01096771       0.21109860
S        0.03076195       8.47031357       6.83895938       45       0.18593539      -0.00151333      -0.21761751
S        7.96700551       7.62895616       0.23866996       46      -0.18763635      -0.00701652      -0.22062793
S        3.96609883       8.47153991       6.36663541       47      -0.13649228      -0.02430539       0.10069451
S        3.97330168       3.10729397       0.23717684       48      -0.19325976      -0.01024636      -0.17880535
S        7.97163647       2.26081093       6.36498532       49      -0.18746108       0.00067998       0.19751720
S        0.03317980       3.10744497      12.96783903       50       0.13364643      -0.03693412       0.15748441
S        4.03484212       2.26050546       6.84104373       51       0.20429440      -0.00694266      -0.27765691
N        4.61579507       8.09959768       2.39345093       52       0.03652756      -0.08818052       0.28121158
N        0.61432090       7.99690385       4.20948047       53      -0.11900318      -0.20459592      -0.33886185
N        7.38959695       8.10127734      10.80849508       54       0.07748293       0.02991098      -0.13540365
N        3.38767027       7.99210673       8.99425546       55       0.05117127       0.02627262       0.30571997
N        3.39006304       2.63133830      10.80917428       56      -0.05304427       0.12495511      -0.24707596
N        7.39268803       2.73593182       8.99173329       57       0.06352827       0.20959929       0.44474962
N        0.61522904       2.63091405       2.39214855       58      -0.11090150      -0.22732034       0.38208702
N        4.61949850       2.73284222       4.21247829       59      -0.07680466       0.33691999      -0.56205225
N        5.20643688       7.67181481       3.53301706       60       0.07218680       0.01935893      -0.09921579
N        1.20076404       8.42336764       3.06914560       61       0.10017252      -0.02068007       0.08232635
N        6.80251292       7.67273286       9.67238169       62      -0.13421154      -0.06902063       0.00503051
N        2.80202123       8.42256513      10.13576657       63      -0.06871521      -0.08462685      -0.12701562
N        2.80103634       3.06112087       9.66774792       64      -0.03102170      -0.06399089       0.17948003
N        6.80520809       2.30978608      10.13499665       65      -0.08480820      -0.02921396      -0.15327293
N        1.20400492       3.05724882       3.53276162       66       0.08323084       0.09056181      -0.12513611
N        5.20874291       2.30644061       3.06676124       67       0.00646079      -0.00869071       0.24576329
68