86
Lattice="8.27894459 0.0 0.0 -3.815906390268387 10.491634142198798 0.0 -3.8157882562053747 -3.4636267607237703 9.90342331566665" Properties=species:S:1:pos:R:3:spacegroup_kinds:I:1:forces:R:3 spacegroup="P 1" unit_cell=conventional occupancy="_JSON {\"0\": {\"Cu\": 1}, \"1\": {\"Cu\": 1}, \"2\": {\"H\": 1}, \"3\": {\"H\": 1}, \"4\": {\"H\": 1}, \"5\": {\"H\": 1}, \"6\": {\"H\": 1}, \"7\": {\"H\": 1}, \"8\": {\"H\": 1}, \"9\": {\"H\": 1}, \"10\": {\"H\": 1}, \"11\": {\"H\": 1}, \"12\": {\"H\": 1}, \"13\": {\"H\": 1}, \"14\": {\"H\": 1}, \"15\": {\"H\": 1}, \"16\": {\"H\": 1}, \"17\": {\"H\": 1}, \"18\": {\"H\": 1}, \"19\": {\"H\": 1}, \"20\": {\"H\": 1}, \"21\": {\"H\": 1}, \"22\": {\"H\": 1}, \"23\": {\"H\": 1}, \"24\": {\"H\": 1}, \"25\": {\"H\": 1}, \"26\": {\"H\": 1}, \"27\": {\"H\": 1}, \"28\": {\"H\": 1}, \"29\": {\"H\": 1}, \"30\": {\"H\": 1}, \"31\": {\"H\": 1}, \"32\": {\"C\": 1}, \"33\": {\"C\": 1}, \"34\": {\"C\": 1}, \"35\": {\"C\": 1}, \"36\": {\"C\": 1}, \"37\": {\"C\": 1}, \"38\": {\"C\": 1}, \"39\": {\"C\": 1}, \"40\": {\"C\": 1}, \"41\": {\"C\": 1}, \"42\": {\"C\": 1}, \"43\": {\"C\": 1}, \"44\": {\"C\": 1}, \"45\": {\"C\": 1}, \"46\": {\"C\": 1}, \"47\": {\"C\": 1}, \"48\": {\"C\": 1}, \"49\": {\"C\": 1}, \"50\": {\"C\": 1}, \"51\": {\"C\": 1}, \"52\": {\"C\": 1}, \"53\": {\"C\": 1}, \"54\": {\"C\": 1}, \"55\": {\"C\": 1}, \"56\": {\"C\": 1}, \"57\": {\"C\": 1}, \"58\": {\"C\": 1}, \"59\": {\"C\": 1}, \"60\": {\"C\": 1}, \"61\": {\"C\": 1}, \"62\": {\"C\": 1}, \"63\": {\"C\": 1}, \"64\": {\"C\": 1}, \"65\": {\"C\": 1}, \"66\": {\"C\": 1}, \"67\": {\"C\": 1}, \"68\": {\"C\": 1}, \"69\": {\"C\": 1}, \"70\": {\"N\": 1}, \"71\": {\"N\": 1}, \"72\": {\"N\": 1}, \"73\": {\"N\": 1}, \"74\": {\"N\": 1}, \"75\": {\"N\": 1}, \"76\": {\"N\": 1}, \"77\": {\"N\": 1}, \"78\": {\"O\": 1}, \"79\": {\"O\": 1}, \"80\": {\"O\": 1}, \"81\": {\"O\": 1}, \"82\": {\"O\": 1}, \"83\": {\"O\": 1}, \"84\": {\"O\": 1}, \"85\": {\"O\": 1}}" energy=-584.275634765625 free_energy=-584.275634765625 stress="-0.0032217802945524454 -0.001643407391384244 8.403781248489395e-05 -0.001643407391384244 -0.016444148495793343 -0.01024891622364521 8.403781248489395e-05 -0.01024891622364521 -0.010846400633454323" pbc="T T T"
Cu      -1.90778983       5.24597965      -0.00007405        0       0.34948719       0.14614555      -0.30579326
Cu      -5.72372784       8.75993457       4.95159507        1       0.45782399       0.45032179      -0.21657623
H        3.85339584       6.56440819       1.43762665        2      -0.16251498       0.04257841      -0.33115765
H       -3.21228200       7.88035091       3.29659263        3       0.18816100      -0.02131233      -0.07780064
H       -3.16778939       0.49647987       8.50484865        4      -0.00585335      -0.09812942      -1.18241310
H        3.81848320      -0.85365305       6.64500322        5       0.15671857       1.54920864       0.66423237
H        0.80187678       2.20782754       7.26688785        6      -0.03739667      -0.00986035      -0.00233611
H       -0.09778204       0.88873496       5.42276486        7      -0.41469821       0.85675764       0.68314022
H       -0.15581509       4.86332950       2.68807743        8       0.84689289      -0.43005461      -1.11507690
H        0.76377335       6.14648333       4.48016025        9       0.41639668      -0.51807815      -0.52999485
H       -1.74813176       3.34869208       7.49422993       10      -0.24887747      -0.00851466      -0.49543250
H        2.43621396       1.02800428       4.26373637       11       0.91093451       1.07902598       0.15040986
H        2.43163830       3.72498968       2.39065310       12      -0.06773427       0.06582838      -0.07450601
H       -1.79075847       5.99997909       5.63877085       13       0.73151308       0.33342889      -0.22961845
H        1.46842881       7.30469465       1.29853807       14       0.35559523       0.07492907       0.34265164
H       -0.87517060       8.20782608       2.57920306       15       0.13724950       0.16274063      -0.40273926
H       -0.82725299      -0.26804813       8.55154429       16      -0.09824862       0.03861817      -0.19289310
H        1.52077538      -1.14282059       7.31629569       17       0.14916110       0.20599371       0.04660859
H       -3.23132507       3.88539363       9.65681919       18       1.02449942       0.24450187       0.25775489
H        3.87995224      -0.82197699       3.03167199       19       0.16034856       0.13617755       0.03943306
H        3.87970803       3.18795477       0.20488076       20       0.03871746      -0.06347641       0.00887795
H       -3.23348725       7.87492449       6.84511946       21       1.03795898       0.29877701       0.22625089
H       -2.94540010       5.75794812       8.10934865       22      -0.11886075      -0.02966884      -0.33890364
H        3.60280471       1.26514197       1.78983398       23       0.24096248       0.44604754       0.23165688
H        2.78491971       9.29128095       2.01277896       24       0.13216534       0.17612121      -0.05663367
H       -2.19677210       8.20588290       0.48690780       25       0.36116266       0.62607074      -0.28000656
H       -2.17074017      -2.29468823       7.84015782       26       0.00679295       0.46599147      -0.39407575
H        2.84078430      -1.17776997       9.41570769       27       0.32391459       1.12171209      -0.11139166
H       -1.00779958       1.19510706       1.63878107       28      -0.04657149       0.06103159       0.16216771
H        1.68742333       5.87199869       8.25491590       29      -0.53440839      -0.53086805      -0.72356182
H        2.99344978       4.64984107       6.55959545       30       0.20201872       0.02046879      -0.24789795
H       -2.32811917       2.34890051       3.30946426       31       0.05951077       0.14584970      -0.08054132
C        3.76414629       6.48956339       0.34839149       32       0.14125776      -0.15971802      -1.13166928
C       -3.08602806       8.87100061       3.71978553       33       0.97817492      -0.58018279      -1.20072639
C       -3.06833340       0.59740196       9.54954468       34      -0.08019750       0.11809424       1.21654952
C        3.74833625      -1.79570524       6.20473314       35       0.88285607      -1.82721090      -1.47122955
C        0.28406155       2.59915794       8.13543745       36       0.06539536      -0.20249188      -1.89977956
C        0.41979240       0.24625927       4.76990488       37       0.34013027      -0.00301546      -0.15962648
C        0.41279627       4.48333580       1.78994002       38      -0.74371314       0.30848321       0.30465335
C        0.26973995       6.83621188       5.11670224       39       0.51679552      -0.41459343      -0.68141967
C       -0.96527510       3.16128173       8.19356958       40       0.45381513      -0.05650968       1.06132483
C        1.66435163       0.32529652       4.20295415       41      -0.86362171      -0.76663613      -0.06946678
C        1.66234229       3.92339821       1.65146381       42      -0.07505576       0.15124838       1.12005413
C       -0.97426706       6.74220793       5.64973495       43      -0.95944399      -0.56707466       0.36706778
C        1.56422096       7.62362060       0.26241514       44      -1.28129351       0.17321199      -0.97616172
C       -0.86835890       9.31179422       2.59142294       45      -0.34130383      -0.52250278       0.38446262
C       -0.86546528      -0.56276351       9.60156342       46      -0.00740118       0.04126599       0.34190127
C        1.56983716      -2.23090358       7.25356908       47      -1.12404990      -0.60121179      -0.30685675
C       -2.33840480       6.30725363       8.81931272       48       0.05773077      -0.66972786       0.49999109
C        3.02384214       0.77245014       1.02579190       49       0.01183144      -0.19333236       0.08960140
C        1.84803309       9.10790389       0.09951189       50      -0.15126157      -0.00549464       0.08261517
C       -1.14629919       9.94119467       1.25388815       51      -0.08366031      -0.55158013      -0.11492968
C       -1.14766014      -2.04071643       9.74784156       52      -0.06701512       0.40916944      -0.49535441
C        1.84408178      -2.86102947       8.59538783       53       0.04857947       0.24779166      -0.10377364
C        2.55862776       9.81736520       1.07905171       54      -0.39472133      -1.05902004       0.51817167
C       -1.85520656       9.24509211       0.26298719       55      -0.41981709      -1.29468489       1.02101946
C       -1.85630894      -2.73950384       8.76647187       56      -0.28612167      -1.28836107       0.47684637
C        2.55962847      -2.18439889       9.58256385       57      -0.14907071      -0.78782320       0.57708609
C        6.69706082       0.64913312       0.89603886       58       0.27987781       0.74754786      -0.73900086
C       -6.03374668       6.39129256       8.99176435       59       0.77831417       1.76080537      -0.00295386
C        3.49649824       2.13639914       7.30027991       60       0.66137159       2.96078324       0.71399105
C       -2.79162564       0.84441449       5.42786954       61      -0.03177087       0.17126122       0.02208691
C       -2.79075524       4.90983627       2.55191267       62      -0.98049712      -1.85840726       0.57844555
C        3.46724038       6.23799916       4.47257763       63      -0.16095194      -2.06614184      -4.01772022
C        4.06918116       2.85832596       6.09218252       64       0.06264842      -0.10587884       0.15938324
C       -3.36676711       2.21364103       5.16902729       65       0.00027743      -0.11062209      -0.00396362
C       -3.36711900       4.20874825       3.75209112       66       0.02611870      -0.58588362       0.10456744
C        4.06944495       4.84542088       4.67564243       67      -0.37665930       0.60681838       0.42952055
C        3.67191906       4.17474901       5.83727213       68      -0.31593207      -0.14467733       0.32398814
C       -2.96976042       2.88372744       4.00908310       69      -0.01508573       0.12905203      -0.08687760
N        0.84498251       2.51869020       9.36195298       70      -0.63774866       0.43578541       1.73293316
N       -0.14049261      -0.97046752       4.44694243       71      -0.60725665       0.12618528       0.51180387
N       -0.14345090       4.56481623       0.49880104       72       0.18936452      -0.13163517       0.69981587
N        0.84625517       8.05222949       5.41647138       73      -1.40984309       0.34616676       1.20479214
N       -1.15519768       3.41720529       9.53832405       74       0.01048538       0.09423333       0.98939741
N        1.85428142      -0.85479126       3.51922511       75      -0.46041727      -0.20923074       0.05254936
N        1.85487307       3.66817009       0.32803889       76       0.20502111      -0.38260049      -0.86860418
N       -1.15301828       7.91362661       6.32808636       77      -0.92666453       0.77866352       0.92095077
O       -4.79518248       2.87257253       8.39491955       78      -0.27467310      -0.81417584      -0.28550988
O        5.50121568       0.04958269       4.41879306       79       0.18484598      -0.57290673      -0.32789978
O        5.49999858       4.20493209       1.48313017       80       0.24872312      -0.29286760      -1.02094388
O       -4.79493976       7.00377669       5.43632117       81      -0.29115683       2.07117391       2.28251696
O        3.01737827       1.02034583       7.19311649       82      -0.71423888      -2.16069984      -0.42006564
O       -2.32198552       0.56648895       6.55729843       83       0.00877855       0.21813461       0.43881986
O       -2.34987157       6.03961004       2.68526228       84       0.93837881       2.44043636       0.34114105
O        2.96902075       6.48980043       3.29980111       85       0.58705044      -0.38777635       1.39265203
86
Lattice="8.27894459 0.0 0.0 -3.815906390268387 10.491634142198798 0.0 -3.8157882562053747 -3.4636267607237703 9.90342331566665" Properties=species:S:1:pos:R:3:spacegroup_kinds:I:1:forces:R:3 spacegroup="P 1" unit_cell=conventional occupancy="_JSON {\"0\": {\"Cu\": 1}, \"1\": {\"Cu\": 1}, \"2\": {\"H\": 1}, \"3\": {\"H\": 1}, \"4\": {\"H\": 1}, \"5\": {\"H\": 1}, \"6\": {\"H\": 1}, \"7\": {\"H\": 1}, \"8\": {\"H\": 1}, \"9\": {\"H\": 1}, \"10\": {\"H\": 1}, \"11\": {\"H\": 1}, \"12\": {\"H\": 1}, \"13\": {\"H\": 1}, \"14\": {\"H\": 1}, \"15\": {\"H\": 1}, \"16\": {\"H\": 1}, \"17\": {\"H\": 1}, \"18\": {\"H\": 1}, \"19\": {\"H\": 1}, \"20\": {\"H\": 1}, \"21\": {\"H\": 1}, \"22\": {\"H\": 1}, \"23\": {\"H\": 1}, \"24\": {\"H\": 1}, \"25\": {\"H\": 1}, \"26\": {\"H\": 1}, \"27\": {\"H\": 1}, \"28\": {\"H\": 1}, \"29\": {\"H\": 1}, \"30\": {\"H\": 1}, \"31\": {\"H\": 1}, \"32\": {\"C\": 1}, \"33\": {\"C\": 1}, \"34\": {\"C\": 1}, \"35\": {\"C\": 1}, \"36\": {\"C\": 1}, \"37\": {\"C\": 1}, \"38\": {\"C\": 1}, \"39\": {\"C\": 1}, \"40\": {\"C\": 1}, \"41\": {\"C\": 1}, \"42\": {\"C\": 1}, \"43\": {\"C\": 1}, \"44\": {\"C\": 1}, \"45\": {\"C\": 1}, \"46\": {\"C\": 1}, \"47\": {\"C\": 1}, \"48\": {\"C\": 1}, \"49\": {\"C\": 1}, \"50\": {\"C\": 1}, \"51\": {\"C\": 1}, \"52\": {\"C\": 1}, \"53\": {\"C\": 1}, \"54\": {\"C\": 1}, \"55\": {\"C\": 1}, \"56\": {\"C\": 1}, \"57\": {\"C\": 1}, \"58\": {\"C\": 1}, \"59\": {\"C\": 1}, \"60\": {\"C\": 1}, \"61\": {\"C\": 1}, \"62\": {\"C\": 1}, \"63\": {\"C\": 1}, \"64\": {\"C\": 1}, \"65\": {\"C\": 1}, \"66\": {\"C\": 1}, \"67\": {\"C\": 1}, \"68\": {\"C\": 1}, \"69\": {\"C\": 1}, \"70\": {\"N\": 1}, \"71\": {\"N\": 1}, \"72\": {\"N\": 1}, \"73\": {\"N\": 1}, \"74\": {\"N\": 1}, \"75\": {\"N\": 1}, \"76\": {\"N\": 1}, \"77\": {\"N\": 1}, \"78\": {\"O\": 1}, \"79\": {\"O\": 1}, \"80\": {\"O\": 1}, \"81\": {\"O\": 1}, \"82\": {\"O\": 1}, \"83\": {\"O\": 1}, \"84\": {\"O\": 1}, \"85\": {\"O\": 1}}" energy=-582.3890991210938 free_energy=-582.3890991210938 stress="-0.007627540268003941 -0.0008044938440434635 -0.006850256584584713 -0.0008044938440434635 -0.029411043971776962 -0.016804123297333717 -0.006850256584584713 -0.016804123297333717 -0.02417481318116188" pbc="T T T"
Cu      -1.88150337       5.21708118      -0.01827473        0       0.25523549       0.08086904      -0.26695085
Cu      -5.69576682       8.73053799       4.92174235        1       0.43171328       0.78149450      -0.16686966
H        3.83149678       6.58540133       1.46742295        2      -0.02256406      -0.02839062      -0.43611610
H       -3.23653347       7.90929253       3.32632174        3       0.42440632      -0.65144068      -0.55108720
H       -3.13967705       0.52586214       8.51331526        4      -0.04111646      -0.02801176      -0.61309570
H        3.84054697      -0.82732345       6.67315689        5      -0.01491779      -0.76610500      -0.51141798
H        0.82990588       2.23733222       7.29255666        6      -0.09624882      -0.03089464      -0.17944857
H       -0.07913780       0.85935445       5.39825265        7      -0.30984467       0.80621111       0.61681765
H       -0.14284857       4.88862092       2.71641741        8       1.03592360      -0.55978048      -1.49868202
H        0.79142743       6.17637292       4.50670654        9       1.16579914      -1.71588993      -1.59171975
H       -1.74364318       3.36844714       7.50898397       10       0.28430691      -0.11441652      -0.15690829
H        2.46224310       0.99891721       4.24041233       11       1.34183788       1.66432822       0.31157798
H        2.45570880       3.74422326       2.36393384       12       0.33618370      -0.00785571       0.30698201
H       -1.81740499       6.02734202       5.66869511       13       1.29499531       0.26777640      -0.55279863
H        1.43857146       7.29762757       1.32570752       14       0.83362019       0.35085565      -1.08120489
H       -0.89778219       8.23188406       2.60692835       15       0.32378483       0.12247643      -0.69965643
H       -0.79958462      -0.26968669       8.52553276       16      -0.08925094       0.06963052      -0.27879152
H        1.55051242      -1.12430119       7.31259103       17       0.35353538      -0.21930361      -0.06515113
H       -3.25380731       3.90646125       9.68627447       18       1.41587496       0.02073051      -0.08024722
H        3.90277243      -0.84254306       3.00184072       19       0.86388451       0.49800202       0.40636098
H        3.90836769       3.18340358       0.17674299       20       0.10434618       0.04317364       0.05400380
H       -3.24909171       7.90098367       6.87505535       21       1.44852257       0.35620731      -0.00432969
H       -2.91837986       5.78773352       8.13926008       22      -0.35513386      -0.27241698      -0.62531435
H        3.59058339       1.23562458       1.76102371       23       1.72663879       1.83068371       2.19210863
H        2.75552227       9.30655008       2.02072250       24       0.22168362       0.45415303      -0.50546026
H       -2.21717679       8.23187685       0.51682598       25       0.69311899       1.22346556      -0.58098209
H       -2.16551700      -2.31025411       7.81883514       26       0.10146029       0.65765238      -0.32746813
H        2.84274976      -1.20425232       9.38595369       27       0.53599566       1.61338854      -0.13992882
H       -0.98752014       1.16875465       1.61299326       28       0.06377184       0.29966915       0.30490392
H        1.70869163       5.89728623       8.28384640       29      -1.74555385      -1.59399557      -2.27783179
H        2.96348661       4.62016495       6.53126312       30       0.19485267       0.26626870      -0.00172056
H       -2.33972172       2.34167406       3.28646199       31       0.41366082       0.00366472      -0.36740407
C        3.78486748       6.51747931       0.37215096       32       0.48835391      -0.67168736      -2.39151263
C       -3.06476755       8.88996426       3.70419976       33       1.90657067      -1.18172395      -2.00225902
C       -3.04248873       0.62458960       9.57485389       34       0.27417597      -0.62076485      -1.74502182
C        3.77402103      -1.82524834       6.17631591       35       0.82900429       0.90681994      -0.00883693
C        0.31127932       2.62612172       8.16046568       36      -0.10818054      -0.41833895      -3.82664204
C        0.44948956       0.21946740       4.74598860       37      -0.21247844       0.97757804       0.63234121
C        0.43776724       4.51261519       1.80342564       38      -0.48987690      -0.15375489       0.03435737
C        0.29867967       6.85507938       5.08971335       39      -0.65998036      -1.22302771      -0.26031137
C       -0.93618846       3.18841026       8.20934357       40      -0.25961009       0.01391044      -0.16402233
C        1.69080872       0.31757621       4.19341679       41      -1.07339108      -0.58306372      -0.05155140
C        1.68995238       3.94650205       1.64462621       42      -0.44387519       0.33479702       0.62953037
C       -0.94907539       6.73227767       5.62345479       43      -1.60151243      -1.08952487       0.33560398
C        1.59196664       7.59437781       0.23245551       44      -2.23247337       1.66537797       0.87109089
C       -0.83870813       9.33544138       2.57465664       45      -1.24509752      -1.04000688       0.02706236
C       -0.83615294      -0.55809007       9.57439851       46      -0.29144511       0.26762831       0.48988929
C        1.59959950      -2.22302155       7.22656077       47      -1.60745931      -0.81681556       0.14946142
C       -2.30890523       6.33560130       8.83283965       48      -0.73572624      -2.13145661      -0.47106478
C        3.05373397       0.79444310       1.02743939       49      -1.48152280      -1.43754637      -2.27661085
C        1.87528520       9.13484819       0.07744172       50      -0.03793342      -1.45449638       1.22896981
C       -1.11730847       9.96576925       1.22998652       51      -0.01597333      -0.81054950       0.19316445
C       -1.11843845      -2.03140700       9.73557650       52      -0.19391793       0.52357811      -0.53716594
C        1.87358540      -2.88437396       8.56828853       53       0.71796608       2.50541997      -0.06601217
C        2.58571321       9.84253416       1.05984665       54      -0.94908571      -3.41036940       1.27943516
C       -1.82736951       9.27426888       0.23960001       55      -0.72089231      -2.36172581       1.65023577
C       -1.83064748      -2.72376740       8.75281166       56      -0.34497479      -1.91561341       0.38870054
C        2.58944880      -2.20385974       9.55875554       57      -0.27943888      -1.01284695       0.24717963
C        6.72545756       0.63029974       0.86821724       58       0.73123026       2.52024508      -0.81066543
C       -6.00395432       6.38603237       8.96251439       59       1.99053252       3.56139159       1.50036895
C        3.52355442       2.16071252       7.31101496       60       0.01030877       0.04092571      -1.33003318
C       -2.76221373       0.86978942       5.45077636       61      -0.69668412       0.00246799      -2.89675617
C       -2.76600015       4.92691701       2.54981882       62      -1.10376120      -3.09948015      -1.00073743
C        3.49705143       6.23323463       4.44930500       63       0.18082950      -2.83892393      -3.49398017
C        4.09642034       2.87822491       6.07638246       64       0.16101678      -1.02054405       0.79501551
C       -3.33746154       2.24208012       5.14852595       65       0.10596608      -0.37846792       0.24222606
C       -3.33911293       4.21440640       3.72302967       66      -0.22792393      -0.46664363       0.40680119
C        4.09473096       4.82535941       4.64844957       67      -0.86385226       1.06109595       1.46378326
C        3.70009993       4.17582358       5.86215030       68      -0.19974846       0.68609393      -1.52897263
C       -2.94190407       2.90303261       3.98038361       69      -0.17239469      -0.52425563       0.46457967
N        0.87281046       2.51987908       9.33357593       70      -0.58604676       0.96741557       4.67900372
N       -0.11153833      -0.98489936       4.41859879       71      -1.32997608       0.84700143       1.22025466
N       -0.11558453       4.54508813       0.49039281       72      -1.12988520       1.01110649       2.30269670
N        0.87568651       8.02663239       5.38760425       73      -1.26466858       1.62037027       1.66765165
N       -1.12731320       3.43352472       9.52505332       74       0.19825515      -0.10984561       2.23386669
N        1.88353920      -0.82638483       3.49418134       75      -0.76880556      -1.07977939      -0.11738566
N        1.88232033       3.69700586       0.30132515       76       1.03085852      -0.62725639       0.57520038
N       -1.13496962       7.88374887       6.29824041       77      -0.61555380       1.96613336       1.18110180
O       -4.76594270       2.84645816       8.36524284       78      -0.08838297       0.97169608       1.83305717
O        5.52994792       0.05903567       4.42479811       79       0.07810665      -0.29507706      -0.13537681
O        5.52737770       4.17786730       1.45323811       80       0.36391804       1.07098973       0.47336292
O       -4.76546298       6.98543399       5.40932249       81      -0.10656438       2.61687803       3.44732642
O        3.00953495       1.02529519       7.22085050       82      -0.02664868      -0.95135468      -0.77292317
O       -2.29481216       0.56485976       6.53036545       83       0.77888060       0.04253073       2.82099652
O       -2.34241282       6.05344501       2.69008593       84       1.04181623       2.52317476       0.03216586
O        2.99729827       6.51896353       3.31667493       85       0.08742823      -0.40188506      -0.24081081
86
Lattice="8.27894459 0.0 0.0 -3.815906390268387 10.491634142198798 0.0 -3.8157882562053747 -3.4636267607237703 9.90342331566665" Properties=species:S:1:pos:R:3:spacegroup_kinds:I:1:forces:R:3 spacegroup="P 1" unit_cell=conventional occupancy="_JSON {\"0\": {\"Cu\": 1}, \"1\": {\"Cu\": 1}, \"2\": {\"H\": 1}, \"3\": {\"H\": 1}, \"4\": {\"H\": 1}, \"5\": {\"H\": 1}, \"6\": {\"H\": 1}, \"7\": {\"H\": 1}, \"8\": {\"H\": 1}, \"9\": {\"H\": 1}, \"10\": {\"H\": 1}, \"11\": {\"H\": 1}, \"12\": {\"H\": 1}, \"13\": {\"H\": 1}, \"14\": {\"H\": 1}, \"15\": {\"H\": 1}, \"16\": {\"H\": 1}, \"17\": {\"H\": 1}, \"18\": {\"H\": 1}, \"19\": {\"H\": 1}, \"20\": {\"H\": 1}, \"21\": {\"H\": 1}, \"22\": {\"H\": 1}, \"23\": {\"H\": 1}, \"24\": {\"H\": 1}, \"25\": {\"H\": 1}, \"26\": {\"H\": 1}, \"27\": {\"H\": 1}, \"28\": {\"H\": 1}, \"29\": {\"H\": 1}, \"30\": {\"H\": 1}, \"31\": {\"H\": 1}, \"32\": {\"C\": 1}, \"33\": {\"C\": 1}, \"34\": {\"C\": 1}, \"35\": {\"C\": 1}, \"36\": {\"C\": 1}, \"37\": {\"C\": 1}, \"38\": {\"C\": 1}, \"39\": {\"C\": 1}, \"40\": {\"C\": 1}, \"41\": {\"C\": 1}, \"42\": {\"C\": 1}, \"43\": {\"C\": 1}, \"44\": {\"C\": 1}, \"45\": {\"C\": 1}, \"46\": {\"C\": 1}, \"47\": {\"C\": 1}, \"48\": {\"C\": 1}, \"49\": {\"C\": 1}, \"50\": {\"C\": 1}, \"51\": {\"C\": 1}, \"52\": {\"C\": 1}, \"53\": {\"C\": 1}, \"54\": {\"C\": 1}, \"55\": {\"C\": 1}, \"56\": {\"C\": 1}, \"57\": {\"C\": 1}, \"58\": {\"C\": 1}, \"59\": {\"C\": 1}, \"60\": {\"C\": 1}, \"61\": {\"C\": 1}, \"62\": {\"C\": 1}, \"63\": {\"C\": 1}, \"64\": {\"C\": 1}, \"65\": {\"C\": 1}, \"66\": {\"C\": 1}, \"67\": {\"C\": 1}, \"68\": {\"C\": 1}, \"69\": {\"C\": 1}, \"70\": {\"N\": 1}, \"71\": {\"N\": 1}, \"72\": {\"N\": 1}, \"73\": {\"N\": 1}, \"74\": {\"N\": 1}, \"75\": {\"N\": 1}, \"76\": {\"N\": 1}, \"77\": {\"N\": 1}, \"78\": {\"O\": 1}, \"79\": {\"O\": 1}, \"80\": {\"O\": 1}, \"81\": {\"O\": 1}, \"82\": {\"O\": 1}, \"83\": {\"O\": 1}, \"84\": {\"O\": 1}, \"85\": {\"O\": 1}}" energy=-579.9847412109375 free_energy=-579.9847412109375 stress="-0.008823196403682232 0.0009353570640087128 -0.010336057282984257 0.0009353570640087128 -0.03385067358613014 -0.021863562986254692 -0.010336057282984257 -0.021863562986254692 -0.03296064957976341" pbc="T T T"
Cu      -1.85680116       5.18789852      -0.04760136        0       0.36162117       0.15744939      -0.28089508
Cu      -5.66762735       8.70310795       4.89337891        1       0.52569348       0.72105902      -0.12355050
H        3.83056340       6.61154364       1.49725664        2       0.08164108      -0.31515488      -1.93809843
H       -3.22797294       7.93814755       3.35578970        3       0.06477991      -3.49608898      -1.68084514
H       -3.11077837       0.55046841       8.54163718        4      -0.21515319      -0.14488417      -2.82405519
H        3.86825436      -0.82476565       6.68074060        5      -0.08478887      -1.62740207      -0.96157944
H        0.85979436       2.25996343       7.29391321        6       0.14631954      -0.31818312      -0.69437110
H       -0.05338645       0.83916979       5.37344082        7      -0.13225710       0.59632194       0.39920592
H       -0.14600206       4.91415514       2.74629887        8       1.65787375      -1.09287977      -2.55335474
H        0.81025585       6.20628666       4.53560667        9       3.38920808      -4.77870846      -4.12246275
H       -1.73083301       3.38068390       7.53497929       10       0.32276139      -0.22693202      -0.46520507
H        2.45994041       0.96899509       4.21098443       11       2.25087094       2.45716906       0.33671787
H        2.42795064       3.71580762       2.34268731       12       1.36360705      -0.29653633       1.13582480
H       -1.84576203       6.00448961       5.69578183       13       2.24962449       0.75726080      -0.83457923
H        1.40873643       7.26815168       1.30207469       14       1.17787206       0.36096674      -1.28257406
H       -0.92635211       8.20308791       2.63218966       15       0.68266988       0.24076265      -1.04572833
H       -0.77156020      -0.28645749       8.51795355       16      -0.05536141       0.30162463      -1.10324788
H        1.57909087      -1.15410505       7.28354669       17       0.37293217      -0.21871969      -0.06482285
H       -3.27604190       3.87815565       9.66411209       18       2.24289799       0.12952965       0.04002246
H        3.90647046      -0.87239273       2.97202469       19       1.68629742       0.69260418       0.73446685
H        3.93550911       3.17235610       0.15185183       20       0.09694554       0.01042749       0.04860718
H       -3.27073675       7.87169339       6.89657213       21       2.10604787       0.50529194      -0.17451067
H       -2.90913406       5.78443349       8.11734839       22      -0.51751542      -0.49706098      -0.81654185
H        3.56076516       1.20586470       1.73108625       23       2.51529431       2.64374399       3.45527601
H        2.72564758       9.27669787       2.02300234       24       0.30840117       0.70361125      -0.98290825
H       -2.24241353       8.20960498       0.54650012       25       1.03245986       1.70400524      -0.98854446
H       -2.13924225      -2.33755692       7.78912225       26       0.07671183       0.61863661      -0.30037069
H        2.85502711      -1.23422622       9.35638374       27       0.62666810       1.95328593      -0.16972253
H       -1.01490358       1.13892158       1.58317541       28       0.68126905       0.84362954       1.06621528
H        1.69782808       5.86773115       8.26316266       29      -1.23688912      -1.13952053      -1.63904285
H        2.93557698       4.59172896       6.53082494       30       1.31694078      -0.28892159      -0.96991688
H       -2.31264369       2.37133101       3.27586071       31       1.38686919      -1.00669885      -1.41577196