86
Lattice="9.75349055 0.0 0.0 -0.3107365038965307 11.01683549578295 0.0 -3.482192122829625 -0.10692586095027107 14.222179242498555" Properties=species:S:1:pos:R:3:spacegroup_kinds:I:1:forces:R:3 spacegroup="P 1" unit_cell=conventional occupancy="_JSON {\"0\": {\"Zn\": 1}, \"1\": {\"Zn\": 1}, \"2\": {\"H\": 1}, \"3\": {\"H\": 1}, \"4\": {\"H\": 1}, \"5\": {\"H\": 1}, \"6\": {\"H\": 1}, \"7\": {\"H\": 1}, \"8\": {\"H\": 1}, \"9\": {\"H\": 1}, \"10\": {\"H\": 1}, \"11\": {\"H\": 1}, \"12\": {\"H\": 1}, \"13\": {\"H\": 1}, \"14\": {\"H\": 1}, \"15\": {\"H\": 1}, \"16\": {\"H\": 1}, \"17\": {\"H\": 1}, \"18\": {\"H\": 1}, \"19\": {\"H\": 1}, \"20\": {\"H\": 1}, \"21\": {\"H\": 1}, \"22\": {\"H\": 1}, \"23\": {\"H\": 1}, \"24\": {\"H\": 1}, \"25\": {\"H\": 1}, \"26\": {\"H\": 1}, \"27\": {\"H\": 1}, \"28\": {\"C\": 1}, \"29\": {\"C\": 1}, \"30\": {\"C\": 1}, \"31\": {\"C\": 1}, \"32\": {\"C\": 1}, \"33\": {\"C\": 1}, \"34\": {\"C\": 1}, \"35\": {\"C\": 1}, \"36\": {\"C\": 1}, \"37\": {\"C\": 1}, \"38\": {\"C\": 1}, \"39\": {\"C\": 1}, \"40\": {\"C\": 1}, \"41\": {\"C\": 1}, \"42\": {\"C\": 1}, \"43\": {\"C\": 1}, \"44\": {\"C\": 1}, \"45\": {\"C\": 1}, \"46\": {\"C\": 1}, \"47\": {\"C\": 1}, \"48\": {\"C\": 1}, \"49\": {\"C\": 1}, \"50\": {\"C\": 1}, \"51\": {\"C\": 1}, \"52\": {\"C\": 1}, \"53\": {\"C\": 1}, \"54\": {\"C\": 1}, \"55\": {\"C\": 1}, \"56\": {\"C\": 1}, \"57\": {\"C\": 1}, \"58\": {\"C\": 1}, \"59\": {\"C\": 1}, \"60\": {\"C\": 1}, \"61\": {\"C\": 1}, \"62\": {\"C\": 1}, \"63\": {\"C\": 1}, \"64\": {\"C\": 1}, \"65\": {\"C\": 1}, \"66\": {\"C\": 1}, \"67\": {\"C\": 1}, \"68\": {\"C\": 1}, \"69\": {\"C\": 1}, \"70\": {\"N\": 1}, \"71\": {\"N\": 1}, \"72\": {\"O\": 1}, \"73\": {\"O\": 1}, \"74\": {\"O\": 1}, \"75\": {\"O\": 1}, \"76\": {\"O\": 1}, \"77\": {\"O\": 1}, \"78\": {\"O\": 1}, \"79\": {\"O\": 1}, \"80\": {\"O\": 1}, \"81\": {\"O\": 1}, \"82\": {\"O\": 1}, \"83\": {\"O\": 1}, \"84\": {\"O\": 1}, \"85\": {\"O\": 1}}" energy=-594.57421875 free_energy=-594.57421875 stress="0.001306494465097785 0.0005716373561881483 -0.0004242360591888428 0.0005716373561881483 0.0004639471007976681 0.0001079877038137056 -0.0004242360591888428 0.0001079877038137056 0.0003322256961837411" pbc="T T T"
Zn      -0.45420012       5.60705352       7.08737855        0       0.03374034      -0.05814783       0.00551500
Zn       6.50443264       5.50045446       7.21259251        1      -0.16741034       0.06366226       0.09385210
H        3.85893450       8.06829082      13.15304182        2      -0.01929367      -0.07421720       0.03099810
H        5.75382970       0.81034647       9.61352135        3       0.03732667       0.09014057       0.06366476
H        4.78459039       0.97203697       8.12668864        4       0.08333933      -0.02666166       0.00691843
H        5.58741163       9.34481517       9.25509279        5       0.01943990       0.00781212      -0.05173815
H        4.63468847       9.51165665       7.75548716        6       0.10883720       0.04291948       0.04965604
H        4.37721166       3.85039594       8.44225493        7      -0.08581254       0.00634442       0.00320290
H        1.61229035       7.06663019       4.56530380        8      -0.07779514      -0.01785237      -0.14211270
H        0.05836241       6.76719367      11.17816811        9      -0.09212470      -0.04617937       0.07882753
H        1.67554111       8.27745201       5.85795430       10      -0.04514655       0.12342984       0.03237827
H        4.14284681       7.08965824       4.38444674       11       0.03078253       0.01586544      -0.05543635
H        4.23957182       8.28021285       5.70776096       12       0.00456644      -0.06098240      -0.03622097
H        8.98351358       7.78103689       0.70888082       13      -0.01901031       0.00185294      -0.01106270
H       -0.18223701       6.80123819       2.92023551       14      -0.00298221       0.00051971      -0.00310705
H        5.64565820       5.15977001       3.28887469       15       0.00880793       0.02291274      -0.00912741
H        3.86185364       5.05415213       2.59966484       16       0.01461488       0.02022600       0.02161127
H        5.29385132       4.49004981      13.46359888       17       0.04484246       0.00938562       0.01066238
H        0.57943003      10.85765084       5.40351225       18       0.00522816      -0.17307675       0.04147980
H        0.08969344       2.53867609       6.36005404       19       0.09399368      -0.02619216      -0.09956490
H        0.86616238       5.06749973      10.17113938       20      -0.01235665      -0.07418546      -0.03270323
H       -0.04195838       3.43009436      11.78684716       21      -0.04835951      -0.05309325       0.04540160
H        0.32318731       0.98268781      11.42302184       22      -0.04864186      -0.04813775       0.03736480
H        1.63428324       0.20844403       9.45152519       23      -0.05279449       0.05622393       0.01616620
H        2.57829884       1.85951247       7.85953379       24      -0.08797128       0.02298098       0.10815179
H        5.62482351       5.38838524      10.57988320       25      -0.04428301      -0.02180005       0.06837073
H        1.77752717       4.41106374       2.74449299       26      -0.03470451      -0.01955092      -0.00015945
H        2.37562817       8.37607944      11.65929333       27      -0.08890606      -0.05607243      -0.04160262
C       -1.84094101       8.13237175       6.85647663       28      -0.00870623       0.25838077      -0.06459688
C        5.97759172       6.26691064       1.43792534       29      -0.11527459      -0.10855523       0.11540653
C        6.95572297       7.02010154       0.71700948       30       0.00812178      -0.07252844       0.16212127
C        4.65738597       6.07891788       0.85419913       31      -0.06606384      -0.04941296       0.20239109
C        0.86670654       6.46140355      13.77788351       32      -0.07770681       0.01522044      -0.21939805
C        1.87765734       7.25348724      13.12581170       33      -0.22881338      -0.06603489      -0.14030004
C        3.12357298       7.45857624      13.68860579       34       0.12017107       0.05706172      -0.04166712
C        3.64656578       5.41465605       1.59239876       35       0.42316687       0.09855457       0.08212182
C        2.37520084       5.20272172       1.10073502       36      -0.44850796      -0.01939180      -0.21581110
C       -1.44291970       5.47400017      13.98418185       37       0.03844553       0.04870945      -0.05008523
C       -0.42636460       6.13384897      13.18758999       38       0.04488621       0.03628480       0.04982235
C        7.91489162       5.44242631       4.59291855       39       0.07926898       0.02168281       0.08313090
C       -2.70276603       5.17718315      13.39468964       40       0.00081915      -0.10197376       0.15680179
C       -2.94209464       5.46923021      12.04361518       41      -0.20834577      -0.06695705      -0.16064702
C       -0.69988444       6.34383373      11.82822031       42       0.07765353      -0.03674512       0.04374249
C        6.73125578      10.23408310       7.56794298       43       0.02540672      -0.11495435      -0.05579904
C       -1.95302761       9.61777153       6.90778549       44      -0.00210706      -0.05740157       0.10986127
C       -0.97057259      10.49020060       6.40283814       45       0.10906887       0.02613553      -0.12083770
C       -0.75524167       0.87008339       6.59084746       46       0.12073356       0.09014170      -0.08189425
C        7.92091122       1.47656456       7.28521119       47       0.05705695      -0.02658346      -0.02339681
C        6.94735810       0.59244150       7.75405226       48      -0.10726076       0.05433995       0.14535031
C        5.67019272       0.49203206       8.56839415       49      -0.08029589       0.00106311      -0.17889540
C       -1.88941067       2.94216402       7.43074315       50      -0.08324140      -0.09231630       0.05244677
C        5.46066853       9.94645681       8.34296625       51      -0.13658991      -0.10897869      -0.01115391
C        3.69718362       6.24773633       6.37650355       52      -0.08641684      -0.00651774       0.06572390
C        3.77759202       4.55498957       7.86383018       53       0.02477178      -0.09320280       0.01715073
C        2.38179437       4.54855595       7.97996707       54       0.09597363       0.05549698       0.01527500
C        2.30846582       6.25455484       6.48170322       55       0.11217183       0.11830580      -0.14969140
C        2.14362151       7.36948666       5.47213769       56      -0.06698966      -0.09309848       0.07101202
C        3.73430283       7.36541378       5.36454976       57       0.09582555       0.09823454       0.03021082
C       -2.05906721       5.97554195       9.76807043       58      -0.04814932      -0.03731946      -0.14717558
C        7.61788091       5.92938703       3.21619302       59       0.03304409      -0.00097097      -0.03279403
C       -1.91138707       5.98104143      11.24119696       60       0.05818096       0.01328477      -0.05932160
C        8.24793883       7.20677883       1.27178832       61       0.02812065      -0.00331075       0.07240327
C        8.57873894       6.66583498       2.49568319       62      -0.04171219       0.04222680      -0.08194178
C        6.34297484       5.73953111       2.68581337       63      -0.01059794       0.02220137      -0.10793637
C        1.77669804       3.57237178       8.91307126       64       0.06217074       0.01631111      -0.06860812
C        1.03281505       4.00210326      10.02043014       65       0.03923742       0.01590207      -0.03097428
C        0.52217687       3.07407610      10.92535764       66      -0.02527153       0.04071626      -0.03175190
C        0.73313335       1.70806986      10.72397184       67       0.03626020       0.09604864      -0.00898246
C        1.47483928       1.27604604       9.62283393       68       0.11424993      -0.12622054      -0.04485022
C        2.00889648       2.20073399       8.72886401       69      -0.06892885      -0.02495902      -0.09773408
N        4.46383179       5.41545612       7.07601306       70       0.11172594      -0.05423279       0.10437597
N        1.60897291       5.44522591       7.27594208       71      -0.14316511      -0.12636167       0.12702511
O       -0.67877376       7.61985523       6.84498603       72       0.04906678      -0.06563033       0.04349166
O        6.80645973       7.48895101       6.87186744       73      -0.05006644      -0.12250499       0.02686912
O       -0.63594114       5.51943893       5.01803701       74      -0.06334826      -0.00802872      -0.00488958
O        6.92404486       5.02695553       5.28954564       75       0.00229272       0.03480101      -0.12520403
O       -0.79407219       3.58475384       7.15529370       76       0.10635835       0.27977926       0.05814445
O        6.78651144       3.50690185       7.78297017       77       0.01593711       0.03044797      -0.04524431
O       -1.00999885       6.00293076       9.05329656       78       0.00458260      -0.04344010       0.03839765
O        6.49666594       5.87248035       9.28471730       79       0.16332969       0.04171041      -0.02153695
O        6.05276365       4.56238228      14.08200331       80       0.07769969       0.09706034      -0.05949911
O        0.10640579      10.04338551       5.68828178       81      -0.03607184       0.07676126       0.00260016
O        0.26844462       1.59193646       6.04537502       82      -0.13567680       0.06599233       0.18660563
O        5.57917741       5.14787212      11.56107664       83       0.08026290       0.02599192       0.01562017
O        1.41287143       4.59996779       1.85945486       84       0.25681186       0.08548121       0.03500806
O        1.59550877       7.84825099      11.92044257       85       0.10850801       0.03517728       0.13812084
86
Lattice="9.75349055 0.0 0.0 -0.3107365038965307 11.01683549578295 0.0 -3.482192122829625 -0.10692586095027107 14.222179242498555" Properties=species:S:1:pos:R:3:spacegroup_kinds:I:1:forces:R:3 spacegroup="P 1" unit_cell=conventional occupancy="_JSON {\"0\": {\"Zn\": 1}, \"1\": {\"Zn\": 1}, \"2\": {\"H\": 1}, \"3\": {\"H\": 1}, \"4\": {\"H\": 1}, \"5\": {\"H\": 1}, \"6\": {\"H\": 1}, \"7\": {\"H\": 1}, \"8\": {\"H\": 1}, \"9\": {\"H\": 1}, \"10\": {\"H\": 1}, \"11\": {\"H\": 1}, \"12\": {\"H\": 1}, \"13\": {\"H\": 1}, \"14\": {\"H\": 1}, \"15\": {\"H\": 1}, \"16\": {\"H\": 1}, \"17\": {\"H\": 1}, \"18\": {\"H\": 1}, \"19\": {\"H\": 1}, \"20\": {\"H\": 1}, \"21\": {\"H\": 1}, \"22\": {\"H\": 1}, \"23\": {\"H\": 1}, \"24\": {\"H\": 1}, \"25\": {\"H\": 1}, \"26\": {\"H\": 1}, \"27\": {\"H\": 1}, \"28\": {\"C\": 1}, \"29\": {\"C\": 1}, \"30\": {\"C\": 1}, \"31\": {\"C\": 1}, \"32\": {\"C\": 1}, \"33\": {\"C\": 1}, \"34\": {\"C\": 1}, \"35\": {\"C\": 1}, \"36\": {\"C\": 1}, \"37\": {\"C\": 1}, \"38\": {\"C\": 1}, \"39\": {\"C\": 1}, \"40\": {\"C\": 1}, \"41\": {\"C\": 1}, \"42\": {\"C\": 1}, \"43\": {\"C\": 1}, \"44\": {\"C\": 1}, \"45\": {\"C\": 1}, \"46\": {\"C\": 1}, \"47\": {\"C\": 1}, \"48\": {\"C\": 1}, \"49\": {\"C\": 1}, \"50\": {\"C\": 1}, \"51\": {\"C\": 1}, \"52\": {\"C\": 1}, \"53\": {\"C\": 1}, \"54\": {\"C\": 1}, \"55\": {\"C\": 1}, \"56\": {\"C\": 1}, \"57\": {\"C\": 1}, \"58\": {\"C\": 1}, \"59\": {\"C\": 1}, \"60\": {\"C\": 1}, \"61\": {\"C\": 1}, \"62\": {\"C\": 1}, \"63\": {\"C\": 1}, \"64\": {\"C\": 1}, \"65\": {\"C\": 1}, \"66\": {\"C\": 1}, \"67\": {\"C\": 1}, \"68\": {\"C\": 1}, \"69\": {\"C\": 1}, \"70\": {\"N\": 1}, \"71\": {\"N\": 1}, \"72\": {\"O\": 1}, \"73\": {\"O\": 1}, \"74\": {\"O\": 1}, \"75\": {\"O\": 1}, \"76\": {\"O\": 1}, \"77\": {\"O\": 1}, \"78\": {\"O\": 1}, \"79\": {\"O\": 1}, \"80\": {\"O\": 1}, \"81\": {\"O\": 1}, \"82\": {\"O\": 1}, \"83\": {\"O\": 1}, \"84\": {\"O\": 1}, \"85\": {\"O\": 1}}" energy=-594.5777587890625 free_energy=-594.5777587890625 stress="0.0012355742510408163 0.0004907464026473463 -0.0001784455234883353 0.0004907464026473463 0.00044529716251417994 0.00019006372895091772 -0.0001784455234883353 0.00019006372895091772 0.00028321408899500966" pbc="T T T"
Zn      -0.45263772       5.60658320       7.08713533        0       0.02432692      -0.02511687       0.01839484
Zn       6.50387821       5.50169408       7.21037125        1      -0.17330372       0.05478233       0.10161398
H        3.85882063       8.06736534      13.15511217        2       0.05445957      -0.00181805      -0.04122727
H        5.75338166       0.80907251       9.61343256        3       0.02055084       0.09043296       0.02294739
H        4.78512260       0.97369606       8.12448797        4       0.05158189      -0.02200438      -0.00404368
H        5.58889741       9.34458511       9.25346088        5       0.03007396      -0.04023081       0.02932493
H        4.63717733       9.51349019       7.75615593        6       0.06134725      -0.00302687       0.01342797
H        4.37788316       3.85166440       8.44042251        7      -0.01378171      -0.08636951       0.07928710
H        1.61252926       7.06501243       4.56367749        8      -0.04470930       0.01419630      -0.06355693
H        0.05674180       6.76728146      11.18055615        9      -0.03089513      -0.01943030       0.04965556
H        1.67413409       8.27992311       5.85970743       10      -0.02637027       0.04703180       0.00439963
H        4.14084285       7.08768971       4.38596543       11       0.03097577       0.04182587      -0.04143323
H        4.24179920       8.28121696       5.71028430       12       0.00133029      -0.05219574      -0.04123694
H        8.98261482       7.78068231       0.70786960       13      -0.01960237       0.00917648      -0.00192006
H       -0.18214223       6.80117120       2.92034431       14       0.06711875       0.01852612       0.01593644
H        5.64676448       5.16032963       3.28690661       15      -0.00484971       0.02216871      -0.00861782
H        3.86397022       5.05196442       2.60158946       16       0.01774078       0.02742074       0.01022848
H        5.29448712       4.48970845      13.46432878       17       0.12799855       0.01993243       0.07635953
H        0.57720069      10.85474821       5.40423270       18       0.13026085      -0.00257773      -0.03692480
H        0.09225852       2.53873658       6.35787433       19       0.06966171      -0.00954184      -0.07569597
H        0.86565376       5.06576156      10.17026747       20      -0.02425384      -0.00521004      -0.01504472
H       -0.04358000       3.43245462      11.78593809       21      -0.02555292      -0.08495705      -0.00246210
H        0.32583486       0.98265398      11.42429236       22      -0.08151159      -0.08474685       0.06213780
H        1.63329620       0.21064224       9.44970689       23      -0.03162545      -0.01668762       0.01810135
H        2.57576160       1.86132769       7.86226499       24       0.02134111      -0.03696778      -0.05637495
H        5.62416456       5.39103956      10.58092950       25      -0.04922258      -0.03954044       0.11454681
H        1.77669336       4.41100181       2.74613627       26      -0.04389931      -0.00316030      -0.06244545
H        2.37551199       8.37378938      11.65713486       27      -0.09395988      -0.05691356      -0.03618724
C       -1.84180016       8.13508242       6.85826286       28       0.01554357       0.07211351      -0.08132941
C        5.97642771       6.26629569       1.43877221       29      -0.10851658       0.00546543      -0.06352964
C        6.95718080       7.02204327       0.71976306       30      -0.14911847      -0.06760367       0.02046904
C        4.65498790       6.07791833       0.85288161       31       0.04077268      -0.00708348       0.23200127
C        0.86460003       6.46256717      13.77669055       32      -0.02358092       0.02001704      -0.14431536
C        1.87584856       7.25573968      13.12473526       33      -0.12841651      -0.11255030      -0.01853535
C        3.12453911       7.46035765      13.68717975       34      -0.00194687      -0.07915026       0.13687429
C        3.64875791       5.41435462       1.59485694       35       0.19786644       0.05611264      -0.01741536
C        2.37284550       5.20202149       1.10126594       36      -0.15730369       0.06378545      -0.19881552
C       -1.44035947       5.47615483      13.98324284       37      -0.10760871      -0.04180211       0.10707985
C       -0.42847032       6.13586470      13.18997398       38       0.15066624       0.07947922      -0.05422673
C        7.91551953       5.44181532       4.59493957       39      -0.00287853       0.07077841      -0.01586735
C       -2.70089670       5.17895080      13.39744438       40      -0.07579023      -0.07431020      -0.05815834
C       -2.94481757       5.47125085      12.04193876       41       0.09227523      -0.04950964       0.03220768
C       -0.69869625       6.34406493      11.83047697       42      -0.07440139      -0.08152924      -0.02743261
C        6.73101993      10.23648346       7.56857362       43       0.13677853      -0.17946339      -0.08528039
C       -1.95069835       9.61617066       6.90960244       44      -0.08368940       0.18069205       0.11904049
C       -0.96982261      10.49202625       6.40091244       45       0.06503651      -0.12393256      -0.07100657
C       -0.75344596       0.87091196       6.58957832       46      -0.00582001       0.08748391      -0.01072134
C        7.92351866       1.47910681       7.28341409       47      -0.07720838      -0.12208743       0.05664121
C        6.94719146       0.59485052       7.75636415       48       0.00223562       0.06281143       0.03414039
C        5.66894710       0.49317342       8.56616308       49      -0.03931472      -0.04651707      -0.06203540
C       -1.88855662       2.94391552       7.43103535       50      -0.03327611      -0.08046025       0.03661229
C        5.46237334       9.94374903       8.34361032       51      -0.13272294       0.07701707      -0.08240891
C        3.69515903       6.24790523       6.37672056       52       0.07915729      -0.00652426       0.09030509
C        3.78013186       4.55334359       7.86446200       53      -0.24586657       0.00082076      -0.01389451
C        2.38036383       4.55070687       7.98245653       54       0.18659912       0.06274842      -0.06972039
C        2.31053419       6.25716425       6.47977609       55      -0.06893510      -0.04292387      -0.00549856
C        2.14212976       7.36866155       5.47466878       56      -0.09959871       0.05130741      -0.05727801
C        3.73441915       7.36835576       5.36626871       57       0.09843832       0.03222522       0.00953260
C       -2.05959505       5.97843268       9.76531439       58       0.04583998      -0.11441601      -0.00502479
C        7.61828190       5.93111885       3.21780577       59       0.00306027       0.03272888      -0.13498674
C       -1.90914519       5.97858349      11.23844326       60      -0.01703681       0.05324872       0.06773055
C        8.24714563       7.20940417       1.27426646       61       0.08103131       0.02720870       0.00300318
C        8.58080819       6.66858771       2.49590082       62      -0.18516639      -0.06258960       0.02844448
C        6.34114504       5.74242835       2.68293198       63       0.13828659      -0.05445252       0.11495943
C        1.77568958       3.57353349       8.91400512       64       0.11214590      -0.04642415      -0.13188264
C        1.03276763       4.00253137      10.02046276       65       0.01240752      -0.06263478      -0.02302339
C        0.51968333       3.07357108      10.92264750       66      -0.04985140       0.03474338       0.04968730
C        0.73080954       1.70619498      10.72301884       67       0.08610496       0.20314780      -0.03281745
C        1.47641573       1.27582423       9.62429750       68       0.12048285      -0.01884505      -0.14186060
C        2.01052291       2.20107135       8.72672721       69      -0.24616730       0.04086786       0.18127465
N        4.46163423       5.41365201       7.07764482       70       0.17421772       0.02624334       0.02025564
N        1.60856431       5.44537731       7.27349324       71      -0.06369549      -0.12293703       0.15941310
O       -0.67794569       7.62217410       6.84328380       72      -0.03397340      -0.06618495       0.05751720
O        6.80489369       7.48811331       6.87424764       73       0.05052082      -0.02879763       0.02586652
O       -0.63545919       5.52172301       5.01717883       74      -0.05211332      -0.03788862       0.04534222
O        6.92203130       5.02719165       5.28954347       75       0.06113580       0.03078777      -0.12630871
O       -0.79235031       3.58739632       7.15794242       76       0.09044099       0.25511348       0.04789652
O        6.78742525       3.50821997       7.78277966       77      -0.00053255       0.02950847      -0.04087410
O       -1.00873496       6.00002532       9.05561183       78       0.08193468      -0.00924073      -0.07287709
O        6.49911368       5.87293520       9.28232304       79       0.03246811       0.05442692      -0.04627477
O        6.05509359       4.56307511      14.08432676       80       0.00838973       0.09400247      -0.11846390
O        0.10740550      10.04392226       5.68702741       81      -0.15499634      -0.06356929       0.07135797
O        0.26655114       1.59126793       6.04712413       82       0.02158612       0.11811508       0.08729672
O        5.58107842       5.15001641      11.56369938       83      -0.07449174       0.01332870      -0.12521040
O        1.41487378       4.59946224       1.85838819       84       0.17375180       0.02866666       0.12953149
O        1.59455935       7.84879797      11.92206503       85       0.08961272       0.08343355       0.04340349
86
Lattice="9.75349055 0.0 0.0 -0.3107365038965307 11.01683549578295 0.0 -3.482192122829625 -0.10692586095027107 14.222179242498555" Properties=species:S:1:pos:R:3:spacegroup_kinds:I:1:forces:R:3 spacegroup="P 1" unit_cell=conventional occupancy="_JSON {\"0\": {\"Zn\": 1}, \"1\": {\"Zn\": 1}, \"2\": {\"H\": 1}, \"3\": {\"H\": 1}, \"4\": {\"H\": 1}, \"5\": {\"H\": 1}, \"6\": {\"H\": 1}, \"7\": {\"H\": 1}, \"8\": {\"H\": 1}, \"9\": {\"H\": 1}, \"10\": {\"H\": 1}, \"11\": {\"H\": 1}, \"12\": {\"H\": 1}, \"13\": {\"H\": 1}, \"14\": {\"H\": 1}, \"15\": {\"H\": 1}, \"16\": {\"H\": 1}, \"17\": {\"H\": 1}, \"18\": {\"H\": 1}, \"19\": {\"H\": 1}, \"20\": {\"H\": 1}, \"21\": {\"H\": 1}, \"22\": {\"H\": 1}, \"23\": {\"H\": 1}, \"24\": {\"H\": 1}, \"25\": {\"H\": 1}, \"26\": {\"H\": 1}, \"27\": {\"H\": 1}, \"28\": {\"C\": 1}, \"29\": {\"C\": 1}, \"30\": {\"C\": 1}, \"31\": {\"C\": 1}, \"32\": {\"C\": 1}, \"33\": {\"C\": 1}, \"34\": {\"C\": 1}, \"35\": {\"C\": 1}, \"36\": {\"C\": 1}, \"37\": {\"C\": 1}, \"38\": {\"C\": 1}, \"39\": {\"C\": 1}, \"40\": {\"C\": 1}, \"41\": {\"C\": 1}, \"42\": {\"C\": 1}, \"43\": {\"C\": 1}, \"44\": {\"C\": 1}, \"45\": {\"C\": 1}, \"46\": {\"C\": 1}, \"47\": {\"C\": 1}, \"48\": {\"C\": 1}, \"49\": {\"C\": 1}, \"50\": {\"C\": 1}, \"51\": {\"C\": 1}, \"52\": {\"C\": 1}, \"53\": {\"C\": 1}, \"54\": {\"C\": 1}, \"55\": {\"C\": 1}, \"56\": {\"C\": 1}, \"57\": {\"C\": 1}, \"58\": {\"C\": 1}, \"59\": {\"C\": 1}, \"60\": {\"C\": 1}, \"61\": {\"C\": 1}, \"62\": {\"C\": 1}, \"63\": {\"C\": 1}, \"64\": {\"C\": 1}, \"65\": {\"C\": 1}, \"66\": {\"C\": 1}, \"67\": {\"C\": 1}, \"68\": {\"C\": 1}, \"69\": {\"C\": 1}, \"70\": {\"N\": 1}, \"71\": {\"N\": 1}, \"72\": {\"O\": 1}, \"73\": {\"O\": 1}, \"74\": {\"O\": 1}, \"75\": {\"O\": 1}, \"76\": {\"O\": 1}, \"77\": {\"O\": 1}, \"78\": {\"O\": 1}, \"79\": {\"O\": 1}, \"80\": {\"O\": 1}, \"81\": {\"O\": 1}, \"82\": {\"O\": 1}, \"83\": {\"O\": 1}, \"84\": {\"O\": 1}, \"85\": {\"O\": 1}}" energy=-594.5740966796875 free_energy=-594.5740966796875 stress="0.0008312447462230921 0.0005846951971761882 -0.00010855172877199948 0.0005846951971761882 0.00029905675910413265 5.160319778951816e-05 -0.00010855172877199948 5.160319778951816e-05 0.00023846924887038767" pbc="T T T"
Zn      -0.45099274       5.60866758       7.08797257        0       0.00024047      -0.03299280       0.02462073
Zn       6.50469522       5.49963129       7.21046302        1      -0.17628118       0.09667560       0.10384683
H        3.85998183       8.06525410      13.15750496        2       0.08241580       0.01833712      -0.05705342
H        5.75242583       0.80718756       9.61502410        3       0.01462245       0.09341175      -0.04299060
H        4.78707853       0.97250600       8.12230681        4      -0.02494558       0.03638405      -0.03125684
H        5.58760337       9.34703194       9.25531874        5       0.01384118       0.00873189      -0.04300795
H        4.63567775       9.51391637       7.75841336        6       0.02541128      -0.01515395      -0.02131815
H        4.38064337       3.84893559       8.44094128        7      -0.11888586       0.02991101      -0.01037655
H        1.61025292       7.06432117       4.56360924        8      -0.00676017       0.03518160      -0.03401650
H        0.05817253       6.77017050      11.18106539        9      -0.09794592      -0.06895406       0.09533101
H        1.67331738       8.27934050       5.86029652       10      -0.03140820       0.05684806       0.01269339
H        4.13863548       7.08801570       4.38553573       11       0.04392632       0.05963925      -0.01617977
H        4.23929797       8.28323285       5.71005772       12       0.06008536       0.02044783      -0.01074438
H        8.98273157       7.77967693       0.70871193       13      -0.00407845       0.04459213      -0.04003035
H       -0.18385902       6.79945200       2.92127480       14       0.05035691       0.01501147       0.00039026
H        5.64582561       5.15840504       3.28624134       15       0.02691356       0.06171434      -0.03218666
H        3.86620310       5.05369283       2.60251736       16       0.00793704       0.02912731       0.01331466
H        5.29567030       4.49057094      13.46670399       17      -0.03136944       0.01625494      -0.08312669
H        0.57625887      10.85588303       5.40476869       18       0.09177809      -0.09285676      -0.01490296
H        0.09331790       2.53925643       6.36021522       19       0.06987527       0.02739401      -0.08092352
H        0.86396200       5.06454585      10.16775922       20      -0.03523795       0.10767943       0.00479907
H       -0.04416433       3.43213373      11.78638174       21      -0.03149959      -0.08338547      -0.01023439
H        0.32398915       0.98290596      11.42363207       22      -0.03738076      -0.00513335      -0.01125078
H        1.63104051       0.21269295       9.45121812       23      -0.00392410      -0.06734500       0.00488311
H        2.57786991       1.86313573       7.86238257       24      -0.03803013      -0.00614394       0.02209631
H        5.62230896       5.39367165      10.58299015       25      -0.03604551      -0.01937500       0.02495066
H        1.77656398       4.41139576       2.74772660       26      -0.00960219       0.00050164      -0.04192808
H        2.37524142       8.37568049      11.65595121       27      -0.04952795      -0.03555062      -0.03960355
C       -1.84045969       8.13774170       6.85725622       28      -0.11944671       0.07098073      -0.05977010
C        5.97372351       6.26685523       1.43977386       29      -0.04754629       0.03873875      -0.08056884
C        6.95477626       7.02085659       0.72196435       30      -0.09701768       0.02019188      -0.08078511
C        4.65451346       6.08019777       0.85225692       31       0.00040136      -0.05028708       0.31900504