92
Lattice="15.09596342 0.0 0.0 0.14065823191055393 15.152905247597173 0.0 2.8667915508932413 2.5125828699229382 17.502574864302677" Properties=species:S:1:pos:R:3:spacegroup_kinds:I:1:forces:R:3 spacegroup="P 1" unit_cell=conventional occupancy="_JSON {\"0\": {\"Zn\": 1}, \"1\": {\"Zn\": 1}, \"2\": {\"Zn\": 1}, \"3\": {\"Zn\": 1}, \"4\": {\"H\": 1}, \"5\": {\"H\": 1}, \"6\": {\"H\": 1}, \"7\": {\"H\": 1}, \"8\": {\"H\": 1}, \"9\": {\"H\": 1}, \"10\": {\"H\": 1}, \"11\": {\"H\": 1}, \"12\": {\"H\": 1}, \"13\": {\"H\": 1}, \"14\": {\"H\": 1}, \"15\": {\"H\": 1}, \"16\": {\"H\": 1}, \"17\": {\"H\": 1}, \"18\": {\"H\": 1}, \"19\": {\"H\": 1}, \"20\": {\"H\": 1}, \"21\": {\"H\": 1}, \"22\": {\"H\": 1}, \"23\": {\"H\": 1}, \"24\": {\"H\": 1}, \"25\": {\"H\": 1}, \"26\": {\"C\": 1}, \"27\": {\"C\": 1}, \"28\": {\"C\": 1}, \"29\": {\"C\": 1}, \"30\": {\"C\": 1}, \"31\": {\"C\": 1}, \"32\": {\"C\": 1}, \"33\": {\"C\": 1}, \"34\": {\"C\": 1}, \"35\": {\"C\": 1}, \"36\": {\"C\": 1}, \"37\": {\"C\": 1}, \"38\": {\"C\": 1}, \"39\": {\"C\": 1}, \"40\": {\"C\": 1}, \"41\": {\"C\": 1}, \"42\": {\"C\": 1}, \"43\": {\"C\": 1}, \"44\": {\"C\": 1}, \"45\": {\"C\": 1}, \"46\": {\"C\": 1}, \"47\": {\"C\": 1}, \"48\": {\"C\": 1}, \"49\": {\"C\": 1}, \"50\": {\"C\": 1}, \"51\": {\"C\": 1}, \"52\": {\"C\": 1}, \"53\": {\"C\": 1}, \"54\": {\"C\": 1}, \"55\": {\"C\": 1}, \"56\": {\"C\": 1}, \"57\": {\"C\": 1}, \"58\": {\"C\": 1}, \"59\": {\"C\": 1}, \"60\": {\"C\": 1}, \"61\": {\"C\": 1}, \"62\": {\"C\": 1}, \"63\": {\"C\": 1}, \"64\": {\"C\": 1}, \"65\": {\"C\": 1}, \"66\": {\"C\": 1}, \"67\": {\"C\": 1}, \"68\": {\"C\": 1}, \"69\": {\"C\": 1}, \"70\": {\"C\": 1}, \"71\": {\"C\": 1}, \"72\": {\"C\": 1}, \"73\": {\"O\": 1}, \"74\": {\"O\": 1}, \"75\": {\"O\": 1}, \"76\": {\"O\": 1}, \"77\": {\"O\": 1}, \"78\": {\"O\": 1}, \"79\": {\"O\": 1}, \"80\": {\"O\": 1}, \"81\": {\"O\": 1}, \"82\": {\"O\": 1}, \"83\": {\"O\": 1}, \"84\": {\"O\": 1}, \"85\": {\"O\": 1}, \"86\": {\"O\": 1}, \"87\": {\"O\": 1}, \"88\": {\"O\": 1}, \"89\": {\"O\": 1}, \"90\": {\"O\": 1}, \"91\": {\"O\": 1}}" energy=-646.1862182617188 free_energy=-646.1862182617188 stress="0.0005381401279009879 -8.333408186445013e-05 -0.0006209221319295466 -8.333408186445013e-05 0.0008501979755237699 0.0010819880990311503 -0.0006209221319295466 0.0010819880990311503 -0.00011344123049639165" pbc="T T T"
Zn       7.94806773       7.79670278       7.50268113        0       0.01580957       0.11165752      -0.13224748
Zn      10.03865791       7.60574625       9.91670841        1       0.23967667       0.19124407      -0.30444199
Zn       7.85580739       9.95812708       9.93304470        2       0.18939278      -0.52054876       0.08525842
Zn      10.20703648       9.97585129       7.71800058        3       0.15451454       0.06422970       0.19851322
H        7.10946906       7.07381824      16.40438486        4      -0.38612837      -0.37035838       0.09744126
H       14.34269648       9.66749411       7.18937177        5      -0.30169773       0.24698031      -0.66228837
H       14.07734038       7.79744246      11.05906114        6       0.41813621       0.32272074      -0.42391527
H        1.48480243      10.08036766       6.17441048        7       0.08198363       0.23597874      -0.22809157
H       16.58294748       7.79260464      11.23738627        8      -0.16265605       0.07174962       0.18231520
H        3.69610782       8.36532432      10.28329741        9       0.19091070      -0.03401899       0.42104396
H        8.74741224       3.78844912       6.29459688       10      -0.08614007       0.02884497      -0.18345825
H        8.85858740       1.30548840       6.03565722       11       0.13920388       0.15421107       0.67859876
H        9.29448085      13.81252913      11.34994663       12      -0.08042316      -0.23194908       0.09259634
H        9.24531773      14.21789852       7.06187841       13      -0.07757404       0.19952984       0.85939246
H        7.22324699       7.04105609      13.93085849       14       0.69396245       0.64621884       0.34678465
H        5.05771240       5.35202154       1.11933060       15      -0.21374062      -0.12768701      -0.21411823
H       11.94131862       9.48130743       1.23579658       16       1.11501217       0.47873041      -0.88497382
H        7.86979644       7.75383735       3.45110839       17      -0.34574854      -0.18077491       0.10157089
H       12.22720838       9.96650510      15.20503816       18       0.07879997       0.24039502       0.23646379
H        6.61724873       6.66265292       2.44665683       19       0.17822279      -0.19049212      -1.06188202
H       14.22124625      10.71133584      15.15237084       20      -0.05820365      -0.07950076      -0.06943963
H        3.65656100      10.47974526       5.39869004       21       0.77308953      -0.55979347       1.28408670
H        9.14938595       2.95288916      11.48263423       22       0.10514189      -1.15277290       1.48711205
H        9.43636271      15.73182161      12.53011412       23       0.06519319      -1.73399282       1.74657440
H       10.64280620      11.35645495      14.55642018       24      -0.34992641      -0.74079078      -0.15169828
H       12.20289482       9.43332969       4.87083522       25      -0.40890366       0.55377972      -1.14137340
C       12.60204920       8.77526917       8.99303396       26      -0.30469567      -1.19076574       2.04574680
C       10.90641520       9.21488767       3.02994247       27      -1.22542620       0.09746869       0.84351438
C        8.74108065       8.10264769       2.91908257       28      -1.32892776      -0.67251182      -0.80671597
C        8.83998346       7.93994414       1.53646796       29       0.95882821       0.71885908      -1.44198561
C       10.04724499       8.46858104       0.86395481       30      -0.20884180       0.28817454       2.47015643
C        7.80925630       7.32804752       0.72362996       31       0.40361017      -0.12033696       0.58587241
C       10.82463718       9.81427303      16.80576266       32      -0.85959136      -0.42624548       0.01132746
C       12.04792650      10.22513137      16.25939355       33      -0.67403781      -0.86929834      -0.97951055
C       13.07042977      10.75179882      16.99996114       34       1.32006073       0.31864437      -1.33641660
C        6.74162655       6.62452689       1.32951514       35      -0.80862981      -0.07544863       0.51605940
C        5.81449026       5.90893592       0.57114574       36       0.76699150       0.67731887       1.90098763
C        5.45199962       9.11790315       8.45862282       37       1.84774947      -1.42183495      -1.29026449
C        8.73824329       8.43934026      16.68790230       38       0.23527610      -0.29197586      -1.90919244
C        9.76035751       9.21022506      16.00756697       39       0.00695706       0.11999761       1.17509031
C        7.84327740       7.66645370      15.88660520       40       0.67459369       0.66229808       0.56451011
C        7.93038855       7.69317933      14.51264725       41      -1.70867157      -1.60213494       0.19292068
C        9.69249859       9.34975409      14.60974190       42      -0.67481095      -0.25715008      -0.29199994
C       14.06264001       8.75927334       9.11672319       43       1.89942300       0.25054938      -0.88892430
C        3.99732065       9.14654482       8.33513447       44      -0.92414492       0.50681889      -0.57984579
C        1.99780654       9.72843373       7.06437247       45      -0.53731632      -0.78852296       0.21334516
C        3.36842142       9.64532858       7.14403216       46       0.63998783       0.28592515       0.21641162
C        3.21549787       8.74725815       9.39610845       47      -0.98722303      -0.36548439      -0.08230325
C        8.97242587       5.26833688       8.52715793       48      -0.03820289      -1.55406773      -0.47330958
C        1.78948421       8.71637422       9.31376503       49       0.47837365      -0.06765570       0.18243462
C       16.29303658       9.19705581       8.09746008       50      -1.72515893       0.46204257       0.52111018
C       14.83388410       9.24607799       8.03942437       51       1.18524194      -0.70886272       1.56266224
C       14.73030913       8.22954832      10.26940408       52      -3.03714323      -0.38648975       0.33199877
C       16.05592322       8.22597147      10.38730275       53       2.59119987       0.17093113      -0.81699663
C        8.95041455       3.74283778       8.41095795       54       0.15055232       0.65934247       1.74663115
C        9.27548513      13.90046795       9.19215772       55      -0.25572842      -1.93993115       0.86127371
C        9.31998785      15.85440551      10.63081764       56      -0.22230652      -2.16695404      -0.37636206
C        9.25173967      14.44405441      10.46803136       57       0.44552037       1.70127201       0.89474702
C        9.22035749      14.66892225       8.08416190       58       0.14679708       1.47862077      -2.55588984
C        9.23486673      12.38421196       9.07887426       59       0.18606615       0.12261081      -1.49597955
C        9.16506092      16.10412912       8.16446391       60       0.48826274      -1.61132288       1.46787548
C        9.11533004       1.53108561       9.49322971       61      -0.19276151       1.04401827      -0.01494721
C        9.07991277       2.95309361       9.61380136       62      -0.26991251       1.30010009      -0.72531527
C        8.83336158       3.14547404       7.16371974       63       0.41006896      -0.58149368       0.03323847
C        8.93914001       1.76006208       7.04748739       64      -0.62259984       0.67542374      -1.66772985
C        8.76938174       8.55326020      12.37379454       65      -0.77609867       1.18986392      -0.88096350
C        9.44553393       8.84575121       5.16221834       66       0.39427593       0.56978244      -1.14786029
C        9.67491759       8.71839377       3.65923266       67       3.04415250       1.27693820       1.39187908
C        8.81168001       8.52938220      13.88306171       68       0.66289151       0.61746848      -1.20002866
C       11.04213163       9.13440639       1.65258952       69      -1.85961938      -1.26934016       0.40841812
C       14.30096735      11.00819451      16.21856832       70       1.91601086       1.24604106       0.92397600
C       10.30696850      10.46693215      13.92173607       71       1.17269206       1.39017940      -0.71345925
C       12.01056425       9.82883445       3.79543060       72       1.49969137       0.35110635       0.37105671
O        9.00697439       8.84558304       8.76306883       73       0.02558650       0.00317964       0.25416589
O        8.15819850       5.87323098       7.75897467       74      -0.21774139       0.22322492      -0.05656636
O        9.84238943      11.88454980       8.02523535       75      -0.76668042       0.45421442       1.74000490
O       11.95724716       8.07611824       9.88106668       76       0.21449634       0.39954376      -0.71412677
O        5.99173299       9.77811695       9.39471616       77      -0.18122324       0.21954627       0.21466018
O       12.10674442       9.46988657       8.08296455       78      -0.93754864       0.87359369      -1.22071052
O        6.08927250       8.35203235       7.59714153       79      -1.13927376       1.05676711       1.03522277
O        9.83394347       5.76310841       9.30683602       80       0.13858335       0.34840026       0.21576999
O        8.53087289      11.76675135       9.95017803       81       0.65276372       0.49784595      -0.44416344
O        9.52271310       7.73607447      11.76845980       82       0.06156908      -0.23649478       0.49215138
O       10.09495466       9.74587516       5.80305067       83      -0.02924713      -0.22278196      -0.40147051
O        7.93157897       9.37153353      11.80509882       84       0.69734925      -0.90269285       0.94058603
O        8.57746886       8.07133280       5.64440198       85      -0.60467941      -0.59759891       0.48828456
O       15.38080642      11.54026713      16.60735345       86      -2.27501893      -1.10809612      -0.48101318
O        4.19620121      10.12839805       6.17924502       87      -0.60579330       0.49286222      -1.44581974
O        9.07586882       3.63192023      10.81733903       88       0.01738038      -0.00960454      -2.15663362
O        9.41044616      16.39277291      11.87716526       89      -0.07230090       2.22844124      -1.65582037
O       10.49023818      10.53893412      12.70287477       90      -0.15617363      -0.09458482       0.44255197
O       12.81859421      10.64591088       3.30926860       91      -1.07338142      -1.06332517       0.63585991
92
Lattice="15.09596342 0.0 0.0 0.14065823191055393 15.152905247597173 0.0 2.8667915508932413 2.5125828699229382 17.502574864302677" Properties=species:S:1:pos:R:3:spacegroup_kinds:I:1:forces:R:3 spacegroup="P 1" unit_cell=conventional occupancy="_JSON {\"0\": {\"Zn\": 1}, \"1\": {\"Zn\": 1}, \"2\": {\"Zn\": 1}, \"3\": {\"Zn\": 1}, \"4\": {\"H\": 1}, \"5\": {\"H\": 1}, \"6\": {\"H\": 1}, \"7\": {\"H\": 1}, \"8\": {\"H\": 1}, \"9\": {\"H\": 1}, \"10\": {\"H\": 1}, \"11\": {\"H\": 1}, \"12\": {\"H\": 1}, \"13\": {\"H\": 1}, \"14\": {\"H\": 1}, \"15\": {\"H\": 1}, \"16\": {\"H\": 1}, \"17\": {\"H\": 1}, \"18\": {\"H\": 1}, \"19\": {\"H\": 1}, \"20\": {\"H\": 1}, \"21\": {\"H\": 1}, \"22\": {\"H\": 1}, \"23\": {\"H\": 1}, \"24\": {\"H\": 1}, \"25\": {\"H\": 1}, \"26\": {\"C\": 1}, \"27\": {\"C\": 1}, \"28\": {\"C\": 1}, \"29\": {\"C\": 1}, \"30\": {\"C\": 1}, \"31\": {\"C\": 1}, \"32\": {\"C\": 1}, \"33\": {\"C\": 1}, \"34\": {\"C\": 1}, \"35\": {\"C\": 1}, \"36\": {\"C\": 1}, \"37\": {\"C\": 1}, \"38\": {\"C\": 1}, \"39\": {\"C\": 1}, \"40\": {\"C\": 1}, \"41\": {\"C\": 1}, \"42\": {\"C\": 1}, \"43\": {\"C\": 1}, \"44\": {\"C\": 1}, \"45\": {\"C\": 1}, \"46\": {\"C\": 1}, \"47\": {\"C\": 1}, \"48\": {\"C\": 1}, \"49\": {\"C\": 1}, \"50\": {\"C\": 1}, \"51\": {\"C\": 1}, \"52\": {\"C\": 1}, \"53\": {\"C\": 1}, \"54\": {\"C\": 1}, \"55\": {\"C\": 1}, \"56\": {\"C\": 1}, \"57\": {\"C\": 1}, \"58\": {\"C\": 1}, \"59\": {\"C\": 1}, \"60\": {\"C\": 1}, \"61\": {\"C\": 1}, \"62\": {\"C\": 1}, \"63\": {\"C\": 1}, \"64\": {\"C\": 1}, \"65\": {\"C\": 1}, \"66\": {\"C\": 1}, \"67\": {\"C\": 1}, \"68\": {\"C\": 1}, \"69\": {\"C\": 1}, \"70\": {\"C\": 1}, \"71\": {\"C\": 1}, \"72\": {\"C\": 1}, \"73\": {\"O\": 1}, \"74\": {\"O\": 1}, \"75\": {\"O\": 1}, \"76\": {\"O\": 1}, \"77\": {\"O\": 1}, \"78\": {\"O\": 1}, \"79\": {\"O\": 1}, \"80\": {\"O\": 1}, \"81\": {\"O\": 1}, \"82\": {\"O\": 1}, \"83\": {\"O\": 1}, \"84\": {\"O\": 1}, \"85\": {\"O\": 1}, \"86\": {\"O\": 1}, \"87\": {\"O\": 1}, \"88\": {\"O\": 1}, \"89\": {\"O\": 1}, \"90\": {\"O\": 1}, \"91\": {\"O\": 1}}" energy=-644.984375 free_energy=-644.984375 stress="-0.0008415226475335658 -0.001003263983875513 -0.0008169810171239078 -0.001003263983875513 0.0003021347802132368 0.001189541071653366 -0.0008169810171239078 0.001189541071653366 -0.00023765384685248137" pbc="T T T"
Zn       7.92459978       7.79681194       7.52269346        0       0.53031081      -0.07733561      -0.36163262
Zn      10.02932650       7.57696588       9.94080640        1       0.42373809       0.69965589      -0.76472330
Zn       7.82910458       9.95829460       9.91281153        2       0.50693250      -0.50284219      -0.00483084
Zn      10.23587342       9.94803124       7.69984462        3       0.00882569       0.34618416       0.50549614
H        7.12813352       7.07779400      16.38379177        4      -1.26463783      -1.05757546       0.85472333
H       14.36754637       9.64668024       7.21083791        5      -0.82950854       0.55179340      -1.32682991
H       14.07325169       7.79551083      11.08716133        6       0.57590401       0.63732737      -0.93554401
H        1.49308103      10.06989345       6.18403402        7      -0.47259128       0.56968570      -1.25133538
H       16.56028657       7.80431987      11.24441694        8      -0.08225732       0.01178971       0.16085608
H        3.68536446       8.39443727      10.31275580        9       0.16339929      -0.13366458       0.42279357
H        8.76193431       3.80510239       6.27867835       10      -0.04827564      -0.45505401       0.23135313
H        8.85887869       1.31691220       6.06385672       11       0.19877876      -0.19630253      -0.04996043
H        9.27022350      13.81513501      11.35122780       12      -0.03222871       0.05078534      -0.38955259
H        9.23468887      14.20782868       7.07981472       13      -0.02051962       0.14190653       0.00311424
H        7.23145572       7.04207734      13.95823081       14      -0.23008902      -0.13067886      -0.49623117
H        5.07696906       5.38061475       1.11848282       15      -1.31529212      -0.99261540       0.46852547
H       11.92530962       9.45582880       1.24471356       16       1.21794868       0.68403399      -0.85635090
H        7.87625581       7.75390721       3.42988806       17      -1.52677345      -0.51876378       0.90859973
H       12.22887486       9.93960871      15.21618659       18       0.02902261       0.52442664       0.81649709
H        6.63169784       6.66736353       2.47063051       19       0.15260920      -0.35727847      -1.80462015
H       14.19321911      10.71912589      15.12924582       20      -0.04100586       0.22640768       1.15441513
H        3.68020991      10.50507925       5.38014731       21       0.68425232      -0.83713609       1.63130808
H        9.13429016       2.93979485      11.50868876       22       0.09731892      -0.73157436       1.10577154
H        9.45754147      15.70332664      12.55457721       23      -0.03914611       0.13354158      -0.03250781
H       10.63486308      11.36110837      14.52679828       24      -0.46847725      -0.83332467       0.00608855
H       12.19399515       9.45536843       4.85157986       25      -0.01280982       0.03972616       0.33795574
C       12.62875949       8.78383137       8.99903720       26      -1.64954519      -1.08321214       1.24016523
C       10.92110637       9.19279615       3.04383805       27      -1.44624531       0.21590537       1.75394392
C        8.71355476       8.11661928       2.92862384       28       0.39854494      -0.34250304      -1.35934186
C        8.83193556       7.92134904       1.55691610       29       1.00802600       1.07376528      -2.41012168
C       10.04473215       8.47782187       0.86862021       30      -0.68637991       0.33496535       3.57558727
C        7.79677749       7.32729373       0.70814140       31       0.60590363       0.02435775       1.74457502
C       10.80413326       9.84219556      16.81088741       32      -0.64188623      -0.80151904      -0.31108037
C       12.04868952      10.24443089      16.28251904       33      -1.25466979      -1.38970041      -2.00087428
C       13.07272338      10.76888781      17.01425296       34       0.81502575       0.21332395      -1.09240007
C        6.74035332       6.60354115       1.32277045       35      -0.86504781       0.02189994       1.04933429
C        5.81693246       5.88161769       0.57319650       36       1.84779477       1.66935182       0.78907442
C        5.43393688       9.14305093       8.46701352       37       2.37426138      -2.66918850      -1.82507968
C        8.73100564       8.43337928      16.66447780       38      -0.10746942      -0.43884110       0.50659883
C        9.73106075       9.19076421      16.03384399       39       1.18659031       1.24120796      -1.00653815
C        7.82498912       7.68846489      15.90868788       40       1.13277173       0.67584705      -2.82927942
C        7.90397550       7.69758651      14.48397074       41      -0.82062960      -0.59746158       2.81122208
C        9.66383201       9.32872110      14.60809052       42       0.07720821       0.77666199       0.28337950
C       14.06043576       8.76889817       9.10052274       43       1.64099634      -0.37233183       0.72347575
C        3.97703816       9.16496055       8.36423036       44       0.05435036       0.48990563      -1.90530050
C        1.98898204       9.69982673       7.03620181       45       1.19307685      -0.99731213       1.12819231
C        3.39178198       9.63927343       7.13514055       46      -1.38991356       0.00914724       0.82064414
C        3.20311493       8.72916282       9.40949139       47      -0.16978739       0.03426684      -0.07744380
C        8.95977844       5.29287844       8.54945321       48      -0.51228344      -3.76194000      -1.46929407
C        1.81637010       8.71038090       9.28450182       49      -1.30441344      -0.72809768       1.15058923
C       16.31745610       9.16846104       8.06839995       50      -2.91965055       0.32888046       1.09232712
C       14.80737086       9.21686729       8.05811401       51       3.65346432      -0.19861463       0.26474950
C       14.70864585       8.24350222      10.26493916       52      -1.70657384      -0.82479763       1.04696608
C       16.04814816       8.21690240      10.37765467       53       1.95132160       0.54687929      -1.36771774
C        8.92400429       3.72338034       8.43917923       54       0.52669168       0.57838726       0.73794127
C        9.26869867      13.91548824       9.16465081       55      -0.01079188      -1.92395878       1.84370852
C        9.29630274      15.82678245      10.60412081       56       0.35189870       0.06176166       1.24749279
C        9.25808660      14.46013500      10.45731026       57       0.09384120      -0.37972736       0.52700841
C        9.22901990      14.69509371       8.05715727       58       0.06199357      -0.05823445      -1.45790589
C        9.25397971      12.39774861       9.07604584       59      -0.92651582      -0.44221842      -1.57297814
C        9.17476858      16.08387964       8.16387391       60       0.55083907       0.65205246       1.11666727
C        9.13456056       1.52138010       9.49120052       61      -0.37825540       0.48273939      -0.15815248
C        9.10255880       2.93409994       9.64152593       62      -0.64224672       1.95056331      -1.64274168
C        8.84569434       3.11702104       7.13680291       63       0.26878229       2.07546520       1.66986370
C        8.96390540       1.77269160       7.04772220       64      -0.61341023      -0.92268550      -1.23852038
C        8.74552838       8.56509939      12.39061795       65      -0.50654763       1.16265678      -3.22932911
C        9.41867231       8.87521906       5.15348872       66       0.50412858      -0.32283774      -0.84233135
C        9.68212256       8.70021276       3.66919077       67       2.52046824       1.49631739       1.09671688
C        8.78364698       8.55057474      13.86449560       68       0.19274358      -0.21648674      -0.44213325
C       11.01923762       9.16063864       1.68067413       69      -1.50061953      -1.80156589      -0.77197313
C       14.27998417      11.02880004      16.24648372       70       1.90976357       0.68844843      -1.24224031
C       10.29033563      10.46610408      13.89397923       71       0.88699257       1.06490266       1.78610516
C       12.03086138       9.80277326       3.82452316       72       1.44137239       1.79750776      -2.11380696
O        9.01176218       8.85930894       8.74637572       73       0.05334735      -0.23934035       0.53394568
O        8.17938819       5.84421114       7.73188287       74      -0.83612752       1.15053380      -0.38623321
O        9.81669017      11.89740063       8.00548238       75      -0.32880569       0.20049162       1.69650435
O       11.97496954       8.08388717       9.86467763       76      -0.03810761       0.13647723      -0.20746364
O        5.96456673       9.75970201       9.42176984       77       0.00517275       0.54165018       0.41906491
O       12.11622355       9.44468713       8.06521455       78      -0.72584927       0.97987688      -1.15330887
O        6.11570147       8.34249023       7.59758460       79      -2.62720442       2.14611793       1.79875541
O        9.82895713       5.77328704       9.28530946       80       1.11581230       0.98168421       1.28716254
O        8.50949455      11.75810083       9.92761164       81       1.26435065       1.18180072      -0.67809343
O        9.51698385       7.75714147      11.74638871       82      -0.61685419       0.33766282       1.72129440
O       10.08231603       9.74327123       5.81353827       83       0.09214954       0.13911188      -0.69879729
O        7.90646865       9.37976445      11.78129074       84       1.05535460      -1.32667542       1.66820920
O        8.55770232       8.08621412       5.63114167       85      -0.72877645      -0.44354373       0.62496954
O       15.35844067      11.55747197      16.59166349       86      -1.64085078      -0.74519753       0.01232284
O        4.18662298      10.10608638       6.17160715       87       0.26064795       0.93688667      -2.01051211
O        9.10371374       3.62828510      10.83240525       88       0.07114293      -0.55587822      -1.58916664
O        9.39583720      16.40838366      11.88103443       89      -0.14115602      -0.35664842      -0.83274692
O       10.49813283      10.55439216      12.71065927       90       0.01159894      -0.22537127      -1.62089872
O       12.81312547      10.65145028       3.28610600       91      -1.64724243      -2.02669048       1.44186878
92
Lattice="15.09596342 0.0 0.0 0.14065823191055393 15.152905247597173 0.0 2.8667915508932413 2.5125828699229382 17.502574864302677" Properties=species:S:1:pos:R:3:spacegroup_kinds:I:1:forces:R:3 spacegroup="P 1" unit_cell=conventional occupancy="_JSON {\"0\": {\"Zn\": 1}, \"1\": {\"Zn\": 1}, \"2\": {\"Zn\": 1}, \"3\": {\"Zn\": 1}, \"4\": {\"H\": 1}, \"5\": {\"H\": 1}, \"6\": {\"H\": 1}, \"7\": {\"H\": 1}, \"8\": {\"H\": 1}, \"9\": {\"H\": 1}, \"10\": {\"H\": 1}, \"11\": {\"H\": 1}, \"12\": {\"H\": 1}, \"13\": {\"H\": 1}, \"14\": {\"H\": 1}, \"15\": {\"H\": 1}, \"16\": {\"H\": 1}, \"17\": {\"H\": 1}, \"18\": {\"H\": 1}, \"19\": {\"H\": 1}, \"20\": {\"H\": 1}, \"21\": {\"H\": 1}, \"22\": {\"H\": 1}, \"23\": {\"H\": 1}, \"24\": {\"H\": 1}, \"25\": {\"H\": 1}, \"26\": {\"C\": 1}, \"27\": {\"C\": 1}, \"28\": {\"C\": 1}, \"29\": {\"C\": 1}, \"30\": {\"C\": 1}, \"31\": {\"C\": 1}, \"32\": {\"C\": 1}, \"33\": {\"C\": 1}, \"34\": {\"C\": 1}, \"35\": {\"C\": 1}, \"36\": {\"C\": 1}, \"37\": {\"C\": 1}, \"38\": {\"C\": 1}, \"39\": {\"C\": 1}, \"40\": {\"C\": 1}, \"41\": {\"C\": 1}, \"42\": {\"C\": 1}, \"43\": {\"C\": 1}, \"44\": {\"C\": 1}, \"45\": {\"C\": 1}, \"46\": {\"C\": 1}, \"47\": {\"C\": 1}, \"48\": {\"C\": 1}, \"49\": {\"C\": 1}, \"50\": {\"C\": 1}, \"51\": {\"C\": 1}, \"52\": {\"C\": 1}, \"53\": {\"C\": 1}, \"54\": {\"C\": 1}, \"55\": {\"C\": 1}, \"56\": {\"C\": 1}, \"57\": {\"C\": 1}, \"58\": {\"C\": 1}, \"59\": {\"C\": 1}, \"60\": {\"C\": 1}, \"61\": {\"C\": 1}, \"62\": {\"C\": 1}, \"63\": {\"C\": 1}, \"64\": {\"C\": 1}, \"65\": {\"C\": 1}, \"66\": {\"C\": 1}, \"67\": {\"C\": 1}, \"68\": {\"C\": 1}, \"69\": {\"C\": 1}, \"70\": {\"C\": 1}, \"71\": {\"C\": 1}, \"72\": {\"C\": 1}, \"73\": {\"O\": 1}, \"74\": {\"O\": 1}, \"75\": {\"O\": 1}, \"76\": {\"O\": 1}, \"77\": {\"O\": 1}, \"78\": {\"O\": 1}, \"79\": {\"O\": 1}, \"80\": {\"O\": 1}, \"81\": {\"O\": 1}, \"82\": {\"O\": 1}, \"83\": {\"O\": 1}, \"84\": {\"O\": 1}, \"85\": {\"O\": 1}, \"86\": {\"O\": 1}, \"87\": {\"O\": 1}, \"88\": {\"O\": 1}, \"89\": {\"O\": 1}, \"90\": {\"O\": 1}, \"91\": {\"O\": 1}}" energy=-642.5455322265625 free_energy=-642.5455322265625 stress="-0.001620183466002345 -0.001724075642414391 -0.0008477186202071607 -0.001724075642414391 0.0008508120663464069 0.0008890488534234464 -0.0008477186202071607 0.0008890488534234464 -0.0011989129707217216" pbc="T T T"
Zn       7.92495657       7.82495746       7.54782539        0       0.46655583      -0.73891997      -0.73176765
Zn      10.01767890       7.59457703       9.96800901        1       0.31789276       0.42364705      -1.06132948
Zn       7.80601352       9.98040038       9.89125697        2       0.66498184      -0.71050960       0.17831013
Zn      10.21270976       9.95942330       7.69460458        3       0.19329813       0.09747732       0.33358788
H        7.12642460       7.10728020      16.35556642        4      -2.21881104      -1.86790228       1.65255809
H       14.39029698       9.62920245       7.22553237        5      -1.06828201       0.79740894      -1.69963574
H       14.06442605       7.76976154      11.10497118        6       0.69142002       0.76986480      -0.90494502
H        1.48845358      10.05580587       6.20476684        7      -1.44038177       1.38242197      -3.13063025
H       16.53754985       7.82700861      11.25768497        8       0.08739968       0.06732897      -0.00077903
H        3.69548014       8.40220450      10.32075013        9      -0.11309837       0.01717560       0.09404508
H        8.76485825       3.79577913       6.29962518       10      -0.10826384       0.06043968      -0.50568217
H        8.83107029       1.33440965       6.06919144       11       0.21353850      -0.73182356      -0.74243361
H        9.29018877      13.78838528      11.37880890       12      -0.07172696       0.28159830      -0.85712427
H        9.21285820      14.22448671       7.10415263       13      -0.00622064      -0.09841406      -0.46116969
H        7.22369137       7.03844970      13.98551437       14      -0.20195477      -0.08609301      -0.58548951
H        5.09605839       5.36607316       1.12747835       15      -1.81668043      -1.29492331       0.82535195