93
Lattice="7.55217387 0.0 0.0 1.4631706039363384 9.44901906205712 0.0 2.98391031452711 1.3345537200999207 13.5070246651426" Properties=species:S:1:pos:R:3:spacegroup_kinds:I:1:forces:R:3 spacegroup="P 1" unit_cell=conventional occupancy="_JSON {\"0\": {\"Zn\": 1}, \"1\": {\"Zn\": 1}, \"2\": {\"Zn\": 1}, \"3\": {\"H\": 1}, \"4\": {\"H\": 1}, \"5\": {\"H\": 1}, \"6\": {\"H\": 1}, \"7\": {\"H\": 1}, \"8\": {\"H\": 1}, \"9\": {\"H\": 1}, \"10\": {\"H\": 1}, \"11\": {\"H\": 1}, \"12\": {\"H\": 1}, \"13\": {\"H\": 1}, \"14\": {\"H\": 1}, \"15\": {\"H\": 1}, \"16\": {\"H\": 1}, \"17\": {\"H\": 1}, \"18\": {\"H\": 1}, \"19\": {\"H\": 1}, \"20\": {\"H\": 1}, \"21\": {\"H\": 1}, \"22\": {\"H\": 1}, \"23\": {\"H\": 1}, \"24\": {\"H\": 1}, \"25\": {\"H\": 1}, \"26\": {\"H\": 1}, \"27\": {\"H\": 1}, \"28\": {\"H\": 1}, \"29\": {\"H\": 1}, \"30\": {\"H\": 1}, \"31\": {\"C\": 1}, \"32\": {\"C\": 1}, \"33\": {\"C\": 1}, \"34\": {\"C\": 1}, \"35\": {\"C\": 1}, \"36\": {\"C\": 1}, \"37\": {\"C\": 1}, \"38\": {\"C\": 1}, \"39\": {\"C\": 1}, \"40\": {\"C\": 1}, \"41\": {\"C\": 1}, \"42\": {\"C\": 1}, \"43\": {\"C\": 1}, \"44\": {\"C\": 1}, \"45\": {\"C\": 1}, \"46\": {\"C\": 1}, \"47\": {\"C\": 1}, \"48\": {\"C\": 1}, \"49\": {\"C\": 1}, \"50\": {\"C\": 1}, \"51\": {\"C\": 1}, \"52\": {\"C\": 1}, \"53\": {\"C\": 1}, \"54\": {\"C\": 1}, \"55\": {\"C\": 1}, \"56\": {\"C\": 1}, \"57\": {\"C\": 1}, \"58\": {\"C\": 1}, \"59\": {\"C\": 1}, \"60\": {\"C\": 1}, \"61\": {\"C\": 1}, \"62\": {\"C\": 1}, \"63\": {\"C\": 1}, \"64\": {\"C\": 1}, \"65\": {\"C\": 1}, \"66\": {\"C\": 1}, \"67\": {\"C\": 1}, \"68\": {\"C\": 1}, \"69\": {\"C\": 1}, \"70\": {\"C\": 1}, \"71\": {\"C\": 1}, \"72\": {\"C\": 1}, \"73\": {\"N\": 1}, \"74\": {\"N\": 1}, \"75\": {\"N\": 1}, \"76\": {\"N\": 1}, \"77\": {\"O\": 1}, \"78\": {\"O\": 1}, \"79\": {\"O\": 1}, \"80\": {\"O\": 1}, \"81\": {\"O\": 1}, \"82\": {\"O\": 1}, \"83\": {\"O\": 1}, \"84\": {\"O\": 1}, \"85\": {\"O\": 1}, \"86\": {\"O\": 1}, \"87\": {\"O\": 1}, \"88\": {\"O\": 1}, \"89\": {\"O\": 1}, \"90\": {\"O\": 1}, \"91\": {\"O\": 1}, \"92\": {\"O\": 1}}" energy=-636.6173095703125 free_energy=-636.6173095703125 stress="-0.0012262501986697316 0.005560385994613171 0.0006084210472181439 0.005560385994613171 -0.010240023955702782 -0.0034774423111230135 0.0006084210472181439 -0.0034774423111230135 0.0019258628599345684" pbc="T T T"
Zn       4.14552603       6.20788209       6.74713345        0      -0.06601787       0.41291457       0.13126510
Zn       7.89878913       4.56410281       6.70008640        1       0.00862871       0.09150057       0.09170217
Zn       5.26805975       0.66734394       6.75346743        2       0.28105831      -0.02383673      -0.27679116
H        9.25812981       3.53675302      10.57141330        3       1.09080040       0.08806877      -0.00472269
H        2.74117607       7.23628555       2.87652839        4      -0.19084635       0.04102588       0.00033474
H        5.71462176       9.61325214      11.83330896        5      -0.21541817       0.32266495       0.26634800
H        6.28942635       1.19259489       1.61534499        6       0.36067116      -0.32303935      -0.44859567
H        6.71592956       3.24697053      10.61372163        7      -0.10984436       0.15300086      -0.04518173
H        5.29243569       7.47911993       2.83646190        8       1.32134199       0.09391172       0.02457140
H        8.37435365       4.36096134       2.42748728        9      -0.67938375       1.56815946       0.27073020
H        3.61053459       6.42113321      11.02343969       10       0.30523014      -0.38038528       0.09152482
H       10.48080063       3.05044323      12.70267716       11       0.36983427       0.08218863      -0.31787762
H        1.54749174       7.76200651       0.74623139       12       0.00417444       0.03878798       0.02456738
H        2.15146250       0.57203872       3.79571416       13       0.05493511      -0.15344852       0.07819542
H        9.87620277      10.20907274       9.65263294       14      -0.26827422       1.03141689      -0.83656114
H        6.46626792       7.88357045      13.36534858       15      -0.38091189       0.59709120       0.50470430
H        5.56313283       2.89858170       0.10119953       16       0.17534557      -0.16076791      -0.27539563
H        7.84153293       6.31066690      10.18730035       17       0.39917123      -0.52629203      -0.21235500
H        4.16100525       4.47392652       3.30237038       18      -1.03143466       1.99849486      -0.14292696
H        1.49844771       3.80361091       0.08181752       19      -0.07571292       0.34789494      -0.23304696
H       10.54077122       7.01744436      13.38054560       20      -0.04710349       0.16846614      -0.26390839
H        4.27666117       9.41919799       1.44112745       21       0.25980276      -0.45553115      -0.13819863
H        7.74147270       1.36337736      12.01119698       22      -0.84005654       1.79335904       0.40895790
H        7.78166738       7.47569469       7.96863984       23       0.13065831      -0.16122186      -0.44819623
H        4.27709663       3.33074703       5.50795472       24      -0.08548675       0.24872343       0.05881903
H        4.18915605       1.17270867       9.55174151       25      -0.20282593       0.42483515      -0.09449309
H        7.86931551       9.64876134       3.90648351       26      -0.24553214       0.31390855      -0.09472354
H        2.74863418       1.65711023       6.45490125       27       0.29680461      -0.01600575       0.07236706
H        9.28586056       9.16742319       6.99632081       28      -0.07183810       0.04116140      -0.02145665
H        4.22857972       9.87485221       7.40087776       29       0.66815996       0.64741600      -0.03392895
H        7.80412566       0.95322311       6.04873034       30      -0.15689753      -0.04609489      -0.07392171
C        2.18547597       1.85479761       0.64661909       31       0.15507750      -0.00463613      -0.15842867
C        9.86651912       8.98754291      12.80226572       32      -0.05326849       0.09293273       0.16017145
C        5.81038142       3.67734642       8.17315959       33       0.37053668       0.05587984       0.14328521
C        6.22942703       7.14245336       5.27452183       34       0.11686157       1.54716563       0.03903767
C        2.77163785       4.01353009       8.14964253       35       1.64795852       0.29725876       0.15897861
C        9.26261801       6.79918732       5.29769608       36      -0.22525547      -0.08807490       0.40784714
C        4.95183127       3.61201722       9.40007937       37      -0.15063119      -0.21402191       0.21234170
C        7.10629523       7.23139660       4.04825501       38      -0.35300636      -0.08537405       0.11893232
C        8.66177062       2.88795740       4.64351493       39       0.03091457      -0.49870172       0.55058444
C        3.38355013       7.95061482       8.80589549       40       0.35641208      -0.64412630       1.04032612
C        3.54505466       3.67681189       9.39113501       41      -0.45102832       0.45371407      -0.31594688
C        8.50322321       7.12426311       4.05628217       42       0.17555007      -0.06103812       0.40154254
C        2.83064958       3.51954444      10.59231220       43      -0.34084579      -0.44747484       0.26841956
C        9.20056897       7.32095693       2.85605088       44       0.37125188      -0.09021512      -0.00784528
C        6.19505673       9.12879449      11.00104971       45       0.06475829       0.00910208      -0.36973196
C        5.85497825       1.70778587       2.44678879       46      -0.30518341       0.21399376       0.46941704
C        1.45687226       2.52705370       3.24221687       47       0.22619829      -0.20950945       0.30425647
C       10.59346312       8.31499302      10.20636942       48      -0.20834750      -0.17184073       0.87406832
C        5.62824694       3.36893816      10.59756140       49       0.21585174      -0.12245132      -0.04228365
C        6.42927068       7.47379858       2.85311395       50      -1.49594748      -0.12605874      -0.00548521
C        1.26310782       3.44277681       2.20055795       51       0.56161225      -1.45693421      -0.39964783
C       10.78857640       7.39694167      11.28303807       52      -0.06232077       0.49280688      -1.99863982
C        4.91171051       3.17994036      11.77804159       53      -0.34712294       0.04369862      -0.05579871
C        7.13863724       7.66298288       1.67178281       54       0.41303197       0.02819829       0.03090292
C        6.83869355       7.89945234      11.19285734       55      -0.01225070      -0.02090067       0.33914685
C        5.21376863       2.94068954       2.25745937       56      -0.15747923       0.16252090      -0.10020732
C        3.51174960       3.23759009      11.78264968       57      -0.76316935       0.08364020       0.10285412
C        8.54485149       7.60328172       1.67139234       58      -0.16308126      -0.00146349      -0.20274541
C        2.02367609       1.27179089       2.97455732       59      -0.06801208       0.06939195      -0.27502871
C       10.01447014       9.57069335      10.48210169       60       0.64113700      -1.33409822       0.34320489
C        6.90214013       7.34985912      12.54141231       61       0.41266251      -0.80741698      -0.72287732
C        5.13481474       3.49140902       0.90895860       62       0.51165187      -1.17257380       0.78536278
C        7.40378841       7.28029249      10.06502614       63      -0.37740120       0.37189594       0.13092636
C        4.63664075       3.56257232       3.38343829       64       1.17437899      -1.94767261       0.14846331
C        1.62629056       3.11223264       0.89867028       65       0.06815611      -0.28050357       0.30937916
C       10.42436160       7.73082038      12.55039339       66      -0.18038800      -0.09004241       1.37587476
C        2.38531197       0.92890039       1.67256710       67      -0.32106626       0.37656596       0.40357423
C        9.66775755       9.91280403      11.77601587       68       0.61092728      -1.51800394      -0.14586283
C        7.34302444       7.92689244       8.83635502       69      -0.15657203       0.17146093       0.62244999
C        4.71389206       2.91575959       4.61125618       70      -0.00250152      -0.35808921      -0.11108500
C        6.16824847       9.70391494       9.73485033       71       0.25813740      -0.68667853       0.32228971
C        5.87867482       1.13918881       3.71287151       72       0.27355337      -0.25565240       0.00994726
N        6.75155298       9.12945423       8.66941719       73       0.08786260      -0.01327775      -0.15689364
N        5.30442760       1.71356406       4.78007244       74      -0.01616338       0.01978679       0.16982608
N        7.50798925       6.21008588      12.79812838       75      -0.22525443       0.43335548       0.89289904
N        4.53516205       4.59454248       0.64964295       76      -0.46062452       1.07648146      -1.39244139
O        3.43019204       4.39073817       7.09746673       77      -0.61646909      -0.40123361       0.33445269
O        8.62759411       6.45181931       6.37882291       78       0.54794014       0.04304267      -0.82272565
O        3.34388885       1.22735304       7.13405058       79      -1.08049035      -0.65438181       0.00886269
O        8.71391843       9.61545066       6.32078734       80       0.02033696       0.00576518       0.13300999
O        6.06407069       2.63302729       7.51625674       81      -0.05262572       0.03799699       0.04403270
O        5.97810213       8.20891065       5.93340429       82       0.17001203      -0.75074220      -0.44994986
O        8.91955023       2.07792788       5.62547034       83      -0.13756667       0.75893176      -1.02080679
O        3.12226831       8.74434042       7.86947383       84      -0.25898710       0.71070856      -0.81196105
O        6.38868006       4.80710443       7.95915557       85      -0.12746115      -0.19336621      -0.21731055
O        5.66038269       6.03479332       5.49326059       86      -0.18245500      -0.63087338       0.22407095
O        8.08695210       4.02091901       4.82689199       87       0.03198185      -0.03766914       0.24275328
O        3.96656773       6.81952440       8.63113055       88       0.04180924      -0.22415467      -0.43169519
O        9.07531643       3.95820200       8.21582637       89      -1.06176305      -0.11348707      -0.22420403
O        2.98238281       6.88470957       5.23589024       90      -0.14394611      -0.10623257       0.19010416
O        5.64015964       2.83572743      12.89808805       91       0.04799621      -0.02532097       0.22115406
O        6.41296703       8.00265937       0.55041320       92      -0.10490501       0.02962805      -0.15695386
93
Lattice="7.55217387 0.0 0.0 1.4631706039363384 9.44901906205712 0.0 2.98391031452711 1.3345537200999207 13.5070246651426" Properties=species:S:1:pos:R:3:spacegroup_kinds:I:1:forces:R:3 spacegroup="P 1" unit_cell=conventional occupancy="_JSON {\"0\": {\"Zn\": 1}, \"1\": {\"Zn\": 1}, \"2\": {\"Zn\": 1}, \"3\": {\"H\": 1}, \"4\": {\"H\": 1}, \"5\": {\"H\": 1}, \"6\": {\"H\": 1}, \"7\": {\"H\": 1}, \"8\": {\"H\": 1}, \"9\": {\"H\": 1}, \"10\": {\"H\": 1}, \"11\": {\"H\": 1}, \"12\": {\"H\": 1}, \"13\": {\"H\": 1}, \"14\": {\"H\": 1}, \"15\": {\"H\": 1}, \"16\": {\"H\": 1}, \"17\": {\"H\": 1}, \"18\": {\"H\": 1}, \"19\": {\"H\": 1}, \"20\": {\"H\": 1}, \"21\": {\"H\": 1}, \"22\": {\"H\": 1}, \"23\": {\"H\": 1}, \"24\": {\"H\": 1}, \"25\": {\"H\": 1}, \"26\": {\"H\": 1}, \"27\": {\"H\": 1}, \"28\": {\"H\": 1}, \"29\": {\"H\": 1}, \"30\": {\"H\": 1}, \"31\": {\"C\": 1}, \"32\": {\"C\": 1}, \"33\": {\"C\": 1}, \"34\": {\"C\": 1}, \"35\": {\"C\": 1}, \"36\": {\"C\": 1}, \"37\": {\"C\": 1}, \"38\": {\"C\": 1}, \"39\": {\"C\": 1}, \"40\": {\"C\": 1}, \"41\": {\"C\": 1}, \"42\": {\"C\": 1}, \"43\": {\"C\": 1}, \"44\": {\"C\": 1}, \"45\": {\"C\": 1}, \"46\": {\"C\": 1}, \"47\": {\"C\": 1}, \"48\": {\"C\": 1}, \"49\": {\"C\": 1}, \"50\": {\"C\": 1}, \"51\": {\"C\": 1}, \"52\": {\"C\": 1}, \"53\": {\"C\": 1}, \"54\": {\"C\": 1}, \"55\": {\"C\": 1}, \"56\": {\"C\": 1}, \"57\": {\"C\": 1}, \"58\": {\"C\": 1}, \"59\": {\"C\": 1}, \"60\": {\"C\": 1}, \"61\": {\"C\": 1}, \"62\": {\"C\": 1}, \"63\": {\"C\": 1}, \"64\": {\"C\": 1}, \"65\": {\"C\": 1}, \"66\": {\"C\": 1}, \"67\": {\"C\": 1}, \"68\": {\"C\": 1}, \"69\": {\"C\": 1}, \"70\": {\"C\": 1}, \"71\": {\"C\": 1}, \"72\": {\"C\": 1}, \"73\": {\"N\": 1}, \"74\": {\"N\": 1}, \"75\": {\"N\": 1}, \"76\": {\"N\": 1}, \"77\": {\"O\": 1}, \"78\": {\"O\": 1}, \"79\": {\"O\": 1}, \"80\": {\"O\": 1}, \"81\": {\"O\": 1}, \"82\": {\"O\": 1}, \"83\": {\"O\": 1}, \"84\": {\"O\": 1}, \"85\": {\"O\": 1}, \"86\": {\"O\": 1}, \"87\": {\"O\": 1}, \"88\": {\"O\": 1}, \"89\": {\"O\": 1}, \"90\": {\"O\": 1}, \"91\": {\"O\": 1}, \"92\": {\"O\": 1}}" energy=-635.651611328125 free_energy=-635.651611328125 stress="-0.001483369036577642 0.011509127914905548 0.00014576248941011727 0.011509127914905548 -0.02075134962797165 -0.004799664486199617 0.00014576248941011727 -0.004799664486199617 0.0009978184243664145" pbc="T T T"
Zn       4.17158937       6.23257872       6.71739358        0      -0.07156902       0.45519376       0.17835389
Zn       7.92429297       4.58942321       6.67043109        1       0.02161744       0.11067232       0.15438546
Zn       5.29534684       0.69620859       6.72422726        2       0.28000844      -0.11134411      -0.30268991
H        9.22913669       3.52287866      10.57200108        3       2.40360856       0.21662240      -0.16069253
H        2.76558741       7.21356618       2.84734671        4      -0.08728431       0.02682721      -0.03349321
H        5.70189531       9.58380870      11.80333358        5      -0.35695425       0.64997900       0.48643643
H        6.30181157       1.22238286       1.58736141        6       0.47802514      -0.45396906      -0.62190837
H        6.74353880       3.21752110      10.58374372        7      -0.23301549       0.22732592      -0.01460516
H        5.29195396       7.45908347       2.83478526        8       1.93859124       0.20006484      -0.10452603
H        8.38404856       4.33146437       2.39807543        9      -1.43870473       3.09602070       0.56796181
H        3.58478905       6.44866940      11.00275374       10       0.66337240      -1.16678500       0.00810281
H       10.45262371       3.04016838      12.67644330       11       1.11373973       0.33503407      -1.00699091
H        1.57712998       7.78720745       0.71727351       12      -0.10797983       0.01339033       0.18321830
H        2.12635601       0.59382081       3.77847631       13       0.20469357      -0.11236662      -0.19751900
H        9.90552880      10.20378154       9.62397608       14      -0.22594553       0.66172379      -0.45309523
H        6.43885571       7.85377837      13.33540411       15      -0.32490516       0.63963652       0.40716991
H        5.56859246       2.92803712       0.08616671       16       0.86873341      -1.25804234      -1.50329375
H        7.81273661       6.33973499      10.19836211       17       0.78243554      -1.18985212      -0.28058103
H        4.17806947       4.44393977       3.27374347       18      -2.33362865       4.30345154      -0.37004134
H        1.52597680       3.77393677       0.05320911       19      -0.33830029       1.41357160      -1.21649706
H       10.51507484       7.04704204      13.36581644       20       0.13163358       0.07977776      -0.38258240
H        4.24885829       9.44569487       1.41516856       21       0.55002689      -1.09201324      -0.29612413
H        7.73063002       1.33842253      11.98484655       22      -0.39877668       1.07799506       0.06421770
H        7.81137802       7.50495266       7.94244758       23       0.11126468      -0.19550592      -0.40450898
H        4.30541638       3.34319863       5.47868073       24      -0.17785299       0.35754681       0.15290168
H        4.21908589       1.14583116       9.52197609       25      -1.20748115       2.19933105      -0.43734223
H        7.89671731       9.67582076       3.90842763       26      -0.32028481       0.47307980      -0.31242216
H        2.77695970       1.64963040       6.42580082       27       0.06945160       0.33559954      -0.29776007
H        9.31490815       9.19560176       6.96692831       28       0.01920466      -0.03236873       0.09597344
H        4.24597033       9.89343474       7.37424315       29       0.95355546       0.87085712      -0.01511923
H        7.83410654       0.98061226       6.01881246       30      -0.13723451      -0.02421945      -0.06448724
C        2.21472013       1.88423811       0.61928757       31       0.21242459      -0.10991668      -0.07456094
C        9.89479293       9.01627951      12.77371664       32       0.34850547      -1.24285507       1.04575431
C        5.83790096       3.70020407       8.14331598       33       0.33047786       0.64609337       0.57199246
C        6.25930351       7.15226372       5.24732673       34       0.36106372       2.87363648       0.08752772
C        2.80101643       4.04227497       8.12015419       35       1.57335496       0.26663283       0.18967643
C        9.29220307       6.82642609       5.26772541       36      -0.22401693      -0.09316068       0.61744720
C        4.98110753       3.64174701       9.37140960       37      -0.11967574      -0.38535392       0.46697640
C        7.13592326       7.25782338       4.01851547       38      -0.35686228      -0.18019982       0.40305144
C        8.69154749       2.91011689       4.61418172       39      -0.23720926      -0.26798332       1.55171728
C        3.41281304       7.96386391       8.77809896       40       0.09754737      -0.16067038       0.73423111
C        3.57440438       3.70393604       9.36139899       41      -0.62431169       0.52693534      -0.15668862
C        8.53293288       7.15410057       4.03417301       42       0.23914580      -0.21349961       0.12539393
C        2.85925497       3.54617084      10.56814696       43      -1.51390290      -0.56841427       0.09058373
C        9.22983530       7.31286574       2.82850693       44       0.03961089       0.27117795      -0.17445135
C        6.22339867       9.15852427      10.97612390       45       0.19002765      -0.32338104      -0.65800023
C        5.88350367       1.73751556       2.41856593       46      -0.29858550       0.10191381       0.83051473
C        1.48538674       2.55651582       3.24640446       47       0.63419557      -0.39912117      -1.54149556
C       10.62256489       8.28604177      10.17660198       48      -0.60285133       1.52979541       0.44898212
C        5.65716487       3.38024392      10.57303196       49       0.04882474      -0.05242474      -0.21081297
C        6.45529535       7.48907318       2.83051940       50      -1.97225261      -0.13750650      -0.25264806
C        1.29234600       3.46367611       2.17143220       51       1.19780350      -2.89607739      -0.13162717
C       10.81586055       7.42299328      11.25453799       52      -0.19513547      -0.16011706      -1.05528843
C        4.93097786       3.20944691      11.75505998       53       0.07455678      -0.01476809      -0.22890556
C        7.16816964       7.69232376       1.64323111       54       0.06598131      -0.01164421       0.26778737
C        6.86787576       7.92804537      11.16745534       55      -0.10790582       0.13919479       0.57047772
C        5.24325539       2.96928558       2.22784549       56      -0.15915257      -0.18702300       0.12439717
C        3.54009219       3.26686069      11.75528808       57      -1.73439395      -0.16318531       0.86272889
C        8.56733681       7.63211146       1.64614718       58       0.32915562      -0.19922704      -0.15687892
C        2.05289001       1.30002844       2.94553535       59      -0.36687389       0.09731078       0.38904202
C       10.04388108       9.54389516      10.45359768       60       0.54200482      -0.90691578      -0.14146772
C        6.92212937       7.35311848      12.51198972       61      -0.29666287       0.14340770      -0.68183112
C        5.16309653       3.46547949       0.87927378       62      -1.06087780       1.95187640       1.29154968
C        7.43158159       7.31016036      10.05279374       63      -0.60096562       0.94743443      -0.48028821
C        4.65856701       3.59219322       3.35351846       64       2.50806475      -4.34007931       0.45957178
C        1.65533353       3.14156626       0.86983518       65       0.31090498      -1.36697221       1.39683425
C       10.45259266       7.75446801      12.52413351       66      -0.33008900       0.05038539       1.52141082
C        2.40718945       0.95569700       1.64364514       67      -0.59852618       0.98164183       0.58100408
C        9.69670446       9.88281604      11.74606793       68      -0.22528781       0.66349196      -0.72052276
C        7.37287849       7.95445355       8.81205183       69      -0.13411571       0.15830669       0.79297483
C        4.74349336       2.93855442       4.58267445       70      -0.08216262      -0.11333479      -0.35902151
C        6.19740526       9.73204449       9.70560907       71       1.09768271      -2.34156156       0.89192665
C        5.90703184       1.16836817       3.68442129       72       0.42112193      -0.48620543       0.17435452
N        6.78116119       9.15931455       8.63988934       73       0.27393949      -0.26149410      -0.03681371
N        5.33336889       1.74304169       4.75221256       74       0.07986972      -0.08847733       0.15494795
N        7.51425303       6.23154265      12.77312528       75       0.51954454      -0.61323726       1.07923269
N        4.56318367       4.61233206       0.62181813       76       0.10860872      -0.24689995      -1.11723042
O        3.45919337       4.42048829       7.06812571       77      -0.60159814      -0.40831766       0.32443550
O        8.65732327       6.48064491       6.35016206       78       0.53893024       0.01847023      -0.82174158
O        3.37293952       1.25701684       7.10859559       79      -1.11581063      -1.23459244       0.39782149
O        8.74361315       9.64498514       6.29759081       80      -0.12071466       0.05389690       0.00712486
O        6.09387529       2.66273168       7.49751915       81       0.06124471      -0.42551482      -0.32418910
O        6.00434522       8.23729835       5.90356294       82       0.27686563      -1.23748851      -0.66720235
O        8.94159758       2.09945240       5.61046707       83      -0.20683089       0.99644238      -1.33461142
O        3.15193452       8.77138328       7.84071198       84      -0.14518993       0.42576963      -0.40426978
O        6.41587192       4.83705567       7.94092241       85      -0.11825992      -0.30329299      -0.35255414
O        5.69019237       6.06346239       5.46577594       86      -0.50136167      -1.37295985       0.35173124
O        8.11482690       4.05052793       4.79743301       87       0.14740025      -0.28871495       0.23292775
O        3.99456342       6.84849029       8.61026831       88       0.44228619      -0.94848299      -0.84396935
O        9.10460445       3.98719543       8.18761491       89      -1.02396381      -0.10249057      -0.25491342
O        3.01222308       6.91449554       5.20937833       90      -0.13268167      -0.11830484       0.15472229
O        5.66169936       2.86488345      12.86946498       91       0.08444402      -0.08385009       0.38909078
O        6.44267441       8.03116891       0.52326530       92      -0.17740348       0.10467077      -0.22040123
93
Lattice="7.55217387 0.0 0.0 1.4631706039363384 9.44901906205712 0.0 2.98391031452711 1.3345537200999207 13.5070246651426" Properties=species:S:1:pos:R:3:spacegroup_kinds:I:1:forces:R:3 spacegroup="P 1" unit_cell=conventional occupancy="_JSON {\"0\": {\"Zn\": 1}, \"1\": {\"Zn\": 1}, \"2\": {\"Zn\": 1}, \"3\": {\"H\": 1}, \"4\": {\"H\": 1}, \"5\": {\"H\": 1}, \"6\": {\"H\": 1}, \"7\": {\"H\": 1}, \"8\": {\"H\": 1}, \"9\": {\"H\": 1}, \"10\": {\"H\": 1}, \"11\": {\"H\": 1}, \"12\": {\"H\": 1}, \"13\": {\"H\": 1}, \"14\": {\"H\": 1}, \"15\": {\"H\": 1}, \"16\": {\"H\": 1}, \"17\": {\"H\": 1}, \"18\": {\"H\": 1}, \"19\": {\"H\": 1}, \"20\": {\"H\": 1}, \"21\": {\"H\": 1}, \"22\": {\"H\": 1}, \"23\": {\"H\": 1}, \"24\": {\"H\": 1}, \"25\": {\"H\": 1}, \"26\": {\"H\": 1}, \"27\": {\"H\": 1}, \"28\": {\"H\": 1}, \"29\": {\"H\": 1}, \"30\": {\"H\": 1}, \"31\": {\"C\": 1}, \"32\": {\"C\": 1}, \"33\": {\"C\": 1}, \"34\": {\"C\": 1}, \"35\": {\"C\": 1}, \"36\": {\"C\": 1}, \"37\": {\"C\": 1}, \"38\": {\"C\": 1}, \"39\": {\"C\": 1}, \"40\": {\"C\": 1}, \"41\": {\"C\": 1}, \"42\": {\"C\": 1}, \"43\": {\"C\": 1}, \"44\": {\"C\": 1}, \"45\": {\"C\": 1}, \"46\": {\"C\": 1}, \"47\": {\"C\": 1}, \"48\": {\"C\": 1}, \"49\": {\"C\": 1}, \"50\": {\"C\": 1}, \"51\": {\"C\": 1}, \"52\": {\"C\": 1}, \"53\": {\"C\": 1}, \"54\": {\"C\": 1}, \"55\": {\"C\": 1}, \"56\": {\"C\": 1}, \"57\": {\"C\": 1}, \"58\": {\"C\": 1}, \"59\": {\"C\": 1}, \"60\": {\"C\": 1}, \"61\": {\"C\": 1}, \"62\": {\"C\": 1}, \"63\": {\"C\": 1}, \"64\": {\"C\": 1}, \"65\": {\"C\": 1}, \"66\": {\"C\": 1}, \"67\": {\"C\": 1}, \"68\": {\"C\": 1}, \"69\": {\"C\": 1}, \"70\": {\"C\": 1}, \"71\": {\"C\": 1}, \"72\": {\"C\": 1}, \"73\": {\"N\": 1}, \"74\": {\"N\": 1}, \"75\": {\"N\": 1}, \"76\": {\"N\": 1}, \"77\": {\"O\": 1}, \"78\": {\"O\": 1}, \"79\": {\"O\": 1}, \"80\": {\"O\": 1}, \"81\": {\"O\": 1}, \"82\": {\"O\": 1}, \"83\": {\"O\": 1}, \"84\": {\"O\": 1}, \"85\": {\"O\": 1}, \"86\": {\"O\": 1}, \"87\": {\"O\": 1}, \"88\": {\"O\": 1}, \"89\": {\"O\": 1}, \"90\": {\"O\": 1}, \"91\": {\"O\": 1}, \"92\": {\"O\": 1}}" energy=-633.733642578125 free_energy=-633.733642578125 stress="-0.001088118995539844 0.018689485266804695 -0.0007556009804829955 0.018689485266804695 -0.03210924565792084 -0.008299584500491619 -0.0007556009804829955 -0.008299584500491619 -0.001008579391054809" pbc="T T T"
Zn       4.18876059       6.22396530       6.69087743        0       0.12075035       0.75455773      -0.02410626
Zn       7.95340909       4.58034437       6.64085309        1      -0.01259980       0.43272191       0.39928111
Zn       5.32490477       0.72531221       6.69434222        2       0.27323458      -0.21033123      -0.28559700
H        9.20165490       3.52947781      10.57749009        3       3.32000971       0.05914925      -0.39280635
H        2.79463977       7.21229545       2.81737347        4      -0.23898003       0.10469697      -0.04881542
H        5.71693471       9.55391936      11.77337421        5      -0.29323053       0.54839116       0.44177639
H        6.27293922       1.24901968       1.56378053        6       1.38088417      -1.67583597      -2.16831708
H        6.77197369       3.18788869      10.55381393        7      -0.46482882       0.43018702      -0.00023008
H        5.29178602       7.48394053       2.86072037        8       2.50503731       0.09126223      -0.42838836
H        8.39631262       4.30170198       2.36845809        9      -1.29605389       2.81816101       0.53319979
H        3.56366445       6.47772352      11.02039520       10       1.14867783      -2.27021933      -0.41311574
H       10.42269077       3.06542131      12.64701272       11       1.52352774       0.21105713      -1.17928851
H        1.60203456       7.80363033       0.68774360       12      -0.06912810       0.01225524       0.13434668
H        2.09683783       0.60281863       3.78686469       13       0.45298019      -0.46504015      -0.41962847