62
Lattice="6.76605613 0.0 0.0 3.583332014356295 15.0344311622968 0.0 2.454141077979415 0.9689441283994603 16.834937460478493" Properties=species:S:1:pos:R:3:spacegroup_kinds:I:1:forces:R:3 spacegroup="P 1" unit_cell=conventional occupancy="_JSON {\"0\": {\"Al\": 1}, \"1\": {\"Al\": 1}, \"2\": {\"H\": 1}, \"3\": {\"H\": 1}, \"4\": {\"H\": 1}, \"5\": {\"H\": 1}, \"6\": {\"H\": 1}, \"7\": {\"H\": 1}, \"8\": {\"H\": 1}, \"9\": {\"H\": 1}, \"10\": {\"H\": 1}, \"11\": {\"H\": 1}, \"12\": {\"H\": 1}, \"13\": {\"H\": 1}, \"14\": {\"H\": 1}, \"15\": {\"H\": 1}, \"16\": {\"H\": 1}, \"17\": {\"H\": 1}, \"18\": {\"C\": 1}, \"19\": {\"C\": 1}, \"20\": {\"C\": 1}, \"21\": {\"C\": 1}, \"22\": {\"C\": 1}, \"23\": {\"C\": 1}, \"24\": {\"C\": 1}, \"25\": {\"C\": 1}, \"26\": {\"C\": 1}, \"27\": {\"C\": 1}, \"28\": {\"C\": 1}, \"29\": {\"C\": 1}, \"30\": {\"C\": 1}, \"31\": {\"C\": 1}, \"32\": {\"C\": 1}, \"33\": {\"C\": 1}, \"34\": {\"C\": 1}, \"35\": {\"C\": 1}, \"36\": {\"C\": 1}, \"37\": {\"C\": 1}, \"38\": {\"C\": 1}, \"39\": {\"C\": 1}, \"40\": {\"C\": 1}, \"41\": {\"C\": 1}, \"42\": {\"C\": 1}, \"43\": {\"C\": 1}, \"44\": {\"C\": 1}, \"45\": {\"C\": 1}, \"46\": {\"N\": 1}, \"47\": {\"N\": 1}, \"48\": {\"O\": 1}, \"49\": {\"O\": 1}, \"50\": {\"O\": 1}, \"51\": {\"O\": 1}, \"52\": {\"O\": 1}, \"53\": {\"O\": 1}, \"54\": {\"O\": 1}, \"55\": {\"O\": 1}, \"56\": {\"O\": 1}, \"57\": {\"O\": 1}, \"58\": {\"O\": 1}, \"59\": {\"O\": 1}, \"60\": {\"F\": 1}, \"61\": {\"F\": 1}}" energy=-438.8109130859375 free_energy=-438.8109130859375 stress="-0.009602959267795086 0.0003158455074299127 -0.0004011514538433403 0.0003158455074299127 -0.0011929830070585012 -0.000212203711271286 -0.0004011514538433403 -0.000212203711271286 -0.0014424644177779555" pbc="T T T"
Al       6.40211354       8.00093822       8.41721745        0      -0.08239671      -0.43861234      -0.65770668
Al       9.78474333       8.00151569       8.41731192        1       0.04925825      -0.62380850      -0.19519965
H        4.70893302       9.41370617       7.39600584        2      -0.04679870       0.17014214      -0.09495384
H        8.09380313       6.52966224       9.37976884        3      -0.01853551       0.01554228      -0.05434525
H        9.36864772       8.27881366      12.44642778        4      -0.15111656      -0.01521423      -0.08860150
H        9.32511625       8.38390197      14.92523718        5       0.00974913       0.00555096       0.02748404
H        6.81922230       8.36378812      14.98551032        6       1.18360603       0.01934030       0.59882778
H        5.98564232       7.58869532       1.79951965        7       0.02983989      -0.01573840       0.02816138
H        3.50238814       7.55991267       1.85084189        8       0.22629032      -0.01090977      -0.14845911
H        3.45345539       7.67470918       4.33543123        9       0.81041586      -0.00101431       0.35998011
H        2.55213785       3.93173294       8.32787505       10       0.05669819      -0.03605273      -0.00790836
H       10.28994901      12.01646740       8.45405951       11       0.11492471      -0.02962075      -0.00103117
H        5.99915739      12.11243226       8.47789286       12       0.13679489      -0.00395219      -0.04401396
H        6.05868215      14.52614387       8.43193992       13      -0.00861190       0.01792658       0.00598760
H        6.81497020       3.85309141       8.31998770       14       0.70563501       0.25874886      -0.01966564
H        6.76694208       1.41728667       8.34380588       15       0.96963382      -0.47406015       0.00187434
H        6.94847873       8.23088927      11.43313679       16       0.10193473      -0.02268523      -0.42292604
H        5.87583303       7.72777589       5.35511540       17      -0.12358749      -0.04167782      -0.10004641
C        8.13286828      10.38234951       8.43705228       18      -0.80404925       0.42838997      -0.10482392
C        8.13498551       7.77285131       5.96867474       19      -1.68385839      -0.07247948      -1.00066459
C        4.71544113       5.56533729       8.34757103       20       0.35257322      -0.25031325      -0.02485538
C        4.72414621       8.17181605      10.82741080       21      -1.32676172       0.00745221       0.26897296
C        4.74571325       8.26187503      12.29113923       22      -0.23794082      -0.04063137       0.12141181
C       10.29836516       8.29380577      13.00338945       23      -0.03912549       0.06525302       0.03418076
C       10.26704651       8.35530539      14.38204842       24      -0.42656374      -0.01551065      -0.21057978
C        4.70555176       8.37910903      15.09129862       25       0.77065146      -0.01233229       0.13245623
C        5.93484004       8.34404013      14.41323428       26      -1.38800848       0.00014098      -0.49418309
C        5.96757814       8.28779624      13.01380490       27      -0.86505181       0.05246226       0.67331672
C        6.91978510       7.59939669       2.36244140       28      -0.28883672       0.01134276       0.11039175
C        8.13409509       7.56429157       1.68380448       29      -0.59848106      -0.00716851      -0.34215212
C        2.56889186       7.58817334       2.39453364       30       0.55961311       0.01112508       0.32661527
C        2.55085244       7.64969667       3.77212284       31      -1.05444515      -0.01749553      -0.17502519
C        8.09252060       7.68416345       4.48525694       32       0.81278181      -0.00189786       0.27700564
C        6.88737999       7.65564566       3.76225960       33      -0.88929987      -0.01137018      -0.08365771
C        4.70867286       4.07596812       8.33730248       34      -0.12762208      -0.04962858      -0.02027716
C        8.14230531      11.86861319       8.43763695       35      -0.04617713      -0.19400676       0.05361615
C        3.49789018       3.38910853       8.33913507       36      -0.23288698       0.07906294      -0.01645628
C        3.48855476       2.00623378       8.35042135       37      -0.19355868      -0.05174634      -0.00987011
C        9.34823924      12.55452617       8.43750538       38       0.10176788      -0.02078772       0.01602232
C        9.34894290      13.93723408       8.42661175       39      -0.06641841      -0.33850950      -0.01758222
C        6.96806327      12.61580535       8.44404603       40      -0.54042381       0.09086442       0.06056940
C        7.00380059      14.00275136       8.42828355       41      -0.03283316       0.03033386      -0.02175566
C        5.88508659       3.32773514       8.33180851       42      -0.35142702      -0.22961183       0.01442098
C        5.85416658       1.94072522       8.34786702       43      -1.14463484       0.37507844       0.01145854
C        4.64238361       1.19603590       8.36904613       44       0.39225277       0.18646839       0.00779506
C        8.21006522      14.74741532       8.40615458       45      -0.80522090       0.01697534      -0.02081816
N        4.80918334       8.43703224      16.50166234       46       0.96049130      -0.03959887      -0.76067835
N        8.03078330       7.50661629       0.27353879       47      -0.94453204       0.04081660       0.72390908
O        6.99421989       9.80486501       8.40345683       48      -0.21938920       0.02171636       0.09487391
O        9.22431993       7.83758089       6.55794119       49       1.45205045       0.10870738       0.77565747
O        3.59037266       6.14631351       8.34389738       50      -0.62127161       0.39131573       0.06659418
O        5.83742096       8.14267761      10.22026942       51       1.42673922       0.06631897      -0.40096074
O        5.85439959       6.13884670       8.37205030       52       0.13327828       0.26415366       0.06558582
O        3.60617388       8.10587060      10.22056201       53      -0.28143924       0.03544778       0.31384283
O        9.24859288       9.79721373       8.43770238       54       0.75775564      -0.19858059       0.05629519
O        6.97413419       7.80055885       6.55616838       55      -0.12874520       0.09608522       0.23987299
O        4.69948052       8.52904724       7.78305290       56       0.41294235      -0.04530067       0.11059834
O        8.07232362       7.41985710       8.99517925       57       0.43378407       0.03990830       0.14988363
O        7.14120745       8.25765867      12.40571836       58       1.20032525      -0.00702073      -0.15391997
O        5.66296271       7.68614107       4.36977573       59       0.56426764       0.02308325      -0.05446274
F        2.23747381       1.45342009       8.33633428       60      -0.01195976      -0.06499154       0.01310275
F       10.56909737      14.49013815       8.43885372       61       1.05595553       0.45257527       0.00681563
62
Lattice="6.76605613 0.0 0.0 3.583332014356295 15.0344311622968 0.0 2.454141077979415 0.9689441283994603 16.834937460478493" Properties=species:S:1:pos:R:3:spacegroup_kinds:I:1:forces:R:3 spacegroup="P 1" unit_cell=conventional occupancy="_JSON {\"0\": {\"Al\": 1}, \"1\": {\"Al\": 1}, \"2\": {\"H\": 1}, \"3\": {\"H\": 1}, \"4\": {\"H\": 1}, \"5\": {\"H\": 1}, \"6\": {\"H\": 1}, \"7\": {\"H\": 1}, \"8\": {\"H\": 1}, \"9\": {\"H\": 1}, \"10\": {\"H\": 1}, \"11\": {\"H\": 1}, \"12\": {\"H\": 1}, \"13\": {\"H\": 1}, \"14\": {\"H\": 1}, \"15\": {\"H\": 1}, \"16\": {\"H\": 1}, \"17\": {\"H\": 1}, \"18\": {\"C\": 1}, \"19\": {\"C\": 1}, \"20\": {\"C\": 1}, \"21\": {\"C\": 1}, \"22\": {\"C\": 1}, \"23\": {\"C\": 1}, \"24\": {\"C\": 1}, \"25\": {\"C\": 1}, \"26\": {\"C\": 1}, \"27\": {\"C\": 1}, \"28\": {\"C\": 1}, \"29\": {\"C\": 1}, \"30\": {\"C\": 1}, \"31\": {\"C\": 1}, \"32\": {\"C\": 1}, \"33\": {\"C\": 1}, \"34\": {\"C\": 1}, \"35\": {\"C\": 1}, \"36\": {\"C\": 1}, \"37\": {\"C\": 1}, \"38\": {\"C\": 1}, \"39\": {\"C\": 1}, \"40\": {\"C\": 1}, \"41\": {\"C\": 1}, \"42\": {\"C\": 1}, \"43\": {\"C\": 1}, \"44\": {\"C\": 1}, \"45\": {\"C\": 1}, \"46\": {\"N\": 1}, \"47\": {\"N\": 1}, \"48\": {\"O\": 1}, \"49\": {\"O\": 1}, \"50\": {\"O\": 1}, \"51\": {\"O\": 1}, \"52\": {\"O\": 1}, \"53\": {\"O\": 1}, \"54\": {\"O\": 1}, \"55\": {\"O\": 1}, \"56\": {\"O\": 1}, \"57\": {\"O\": 1}, \"58\": {\"O\": 1}, \"59\": {\"O\": 1}, \"60\": {\"F\": 1}, \"61\": {\"F\": 1}}" energy=-437.4091796875 free_energy=-437.4091796875 stress="-0.023469874635338783 0.0020510689355432987 -0.0023095947690308094 0.0020510689355432987 -0.0027649819385260344 -0.00019659035024233162 -0.0023095947690308094 -0.00019659035024233162 -0.0045812479220330715" pbc="T T T"
Al       6.42603476       7.97094888       8.40628676        0      -0.84336388      -0.16213076      -1.22928905
Al       9.80044985       7.97154619       8.38826202        1      -0.26384765      -0.84594822       0.32682696
H        4.67967106       9.38370892       7.36710531        2       0.07164311       0.13857609      -0.08041915
H        8.06615858       6.50021491       9.34999458        3       0.03803206      -0.02127910      -0.04383621
H        9.39858508       8.24924243      12.44396397        4      -0.57885218      -0.04757130      -0.36838087
H        9.35315134       8.35425268      14.89628375        5      -0.10849988      -0.01871288      -0.00748874
H        6.78931179       8.33380483      14.95608928        6       2.73572683       0.03198774       1.63247061
H        6.01274708       7.56836593       1.77840627        7      -0.79732001      -0.02932911      -0.34071442
H        3.47442499       7.53050350       1.82123385        8       0.34357911      -0.01584768      -0.18752903
H        3.42486179       7.64474531       4.30548503        9       1.67245829       0.01446941       0.71562916
H        2.58171164       3.90178419       8.29848671       10       0.00314245      -0.04084491       0.00269683
H       10.26627213      11.99424445       8.43938216       11       0.93864489      -0.48714760      -0.00322717
H        6.02908175      12.08638901       8.45049347       12       0.04853894       0.00136098      -0.04431297
H        6.07409264      14.50576731       8.41271846       13       0.37935671      -0.25197408      -0.01576228
H        6.78967899       3.82310101       8.29371262       14       1.64389050       0.70342362      -0.02962363
H        6.74066682       1.39231387       8.31393557       15       3.04182339      -1.49107766      -0.01065906
H        6.92913500       8.20165715      11.42120009       16       0.10247593      -0.03190299      -1.22689295
H        5.90562176       7.70771960       5.32852830       17      -0.13608965      -0.06438717      -0.11626928
C        8.15607544      10.35240428       8.41184753       18      -4.84657478       1.27678490       0.03860144
C        8.16301724       7.74286216       5.97290046       19      -6.93758392      -0.31200790      -3.73509026
C        4.71416367       5.53828971       8.31774033       20       0.22235364      -0.47750509      -0.02800901
C        4.74289839       8.14209516      10.79778443       21      -3.52904344       0.25144905       0.31693298
C        4.74537062       8.27114884      12.26151420       22       0.67790502      -0.50508136      -0.03129842
C       10.32504465       8.26399286      12.97986706       23      -0.27585030       0.26597583       0.01628461
C       10.29572439       8.32576612      14.35553053       24      -2.02789998      -0.05707618      -0.50056726
C        4.68017059       8.34916298      15.06171576       25       3.78834772       0.00356576       0.27983889
C        5.95453826       8.31415553      14.38340450       26      -3.93612504      -0.04374433      -1.16522801
C        5.99072208       8.25830219      12.98406723       27      -3.17767954       0.35867327       1.81053495
C        6.91973998       7.57115929       2.33635933       28       0.84316182       0.00437922       0.10990280
C        8.13990009       7.53450069       1.65435496       29      -1.60151744      -0.00531909      -0.47047299
C        2.54249711       7.55828828       2.36462296       30       1.81559682       0.01814224       0.70062059
C        2.54811765       7.61976411       3.74221147       31      -1.98247731      -0.02342751      -0.43255699
C        8.09206035       7.65452285       4.45550873       32       1.70244694       0.00741758       1.07340145
C        6.91070099       7.62581131       3.73254536       33      -1.81404328      -0.00103079      -0.15942585
C        4.73485790       4.04803616       8.30737328       34      -1.16673303       0.10535868       0.01354420
C        8.12903399      11.85749418       8.40773648       35       2.14498234      -1.69840479      -0.01117999
C        3.52608692       3.35930237       8.31326975       36      -0.35522205      -0.01462203      -0.04998440
C        3.51829116       1.97632334       8.32369329       37      -0.32534403       0.02494746      -0.01130521
C        9.35180034      12.52676528       8.40766862       38      -0.97445476       0.36404252       0.02520192
C        9.34896741      13.90766724       8.39680567       39      -0.13815115      -1.02680326      -0.03369878
C        6.99741039      12.58804556       8.41533370       40      -2.30380058       0.82710755       0.05258508
C        7.02995534      13.97280663       8.39968242       41      -0.58195889       0.58403814       0.01282763
C        5.88733338       3.29837447       8.30552749       42      -0.10421120      -0.79401505      -0.01321395
C        5.88134340       1.91083660       8.31810154       43      -3.41062450       1.37906885       0.04628843
C        4.66799395       1.16607238       8.33988969       44       0.48455572       0.17314589       0.01139852
C        8.23349073      14.71743696       8.37635915       45      -1.68893456       0.30360630      -0.03921305
N        4.81151446       8.40706727      16.47167929       46       1.87069607      -0.07800631      -1.33814478
N        8.05714635       7.47703810       0.24401233       47      -2.31933546       0.08884156       1.35352647
O        6.96464481       9.77489561       8.38324095       48       1.37968946       0.78353137       0.06213092
O        9.19682648       7.80778014       6.53589442       49       5.26884842       0.38988608       3.05014634
O        3.58808265       6.11765729       8.31432633       50      -0.75677168       0.27103034      -0.00043437
O        5.83392694       8.11294533      10.19055863       51       2.03245449      -0.03807629      -0.70601714
O        5.84123080       6.11000524       8.34365105       52       0.70080805       0.63209569       0.14042966
O        3.58690654       8.07598417      10.19061189       53       0.98912120       0.03938604       0.89899731
O        9.22112528       9.76733651       8.45154822       54       2.91413760      -1.32553124      -0.09496825
O        6.94983039       7.77281363       6.53862929       55       1.09645283       0.06521907      -0.04327440
O        4.66956746       8.49911459       7.75610786       56       0.77417797       0.03533188       0.06794579
O        8.04625320       7.38992771       8.96563392       57       1.16093254      -0.07609002       0.22649722
O        7.11257089       8.22772520      12.37624798       58       3.47728491      -0.08901676      -0.51479232
O        5.68784336       7.65681384       4.34078094       59       0.35389972       0.04453721       0.05617756
F        2.26722127       1.42386816       8.30938066       60      -0.08716261      -0.06507495       0.01530045
F       10.53935254      14.46014627       8.40938447       61       2.35230494       0.95160586       0.02654227
62
Lattice="6.76605613 0.0 0.0 3.583332014356295 15.0344311622968 0.0 2.454141077979415 0.9689441283994603 16.834937460478493" Properties=species:S:1:pos:R:3:spacegroup_kinds:I:1:forces:R:3 spacegroup="P 1" unit_cell=conventional occupancy="_JSON {\"0\": {\"Al\": 1}, \"1\": {\"Al\": 1}, \"2\": {\"H\": 1}, \"3\": {\"H\": 1}, \"4\": {\"H\": 1}, \"5\": {\"H\": 1}, \"6\": {\"H\": 1}, \"7\": {\"H\": 1}, \"8\": {\"H\": 1}, \"9\": {\"H\": 1}, \"10\": {\"H\": 1}, \"11\": {\"H\": 1}, \"12\": {\"H\": 1}, \"13\": {\"H\": 1}, \"14\": {\"H\": 1}, \"15\": {\"H\": 1}, \"16\": {\"H\": 1}, \"17\": {\"H\": 1}, \"18\": {\"C\": 1}, \"19\": {\"C\": 1}, \"20\": {\"C\": 1}, \"21\": {\"C\": 1}, \"22\": {\"C\": 1}, \"23\": {\"C\": 1}, \"24\": {\"C\": 1}, \"25\": {\"C\": 1}, \"26\": {\"C\": 1}, \"27\": {\"C\": 1}, \"28\": {\"C\": 1}, \"29\": {\"C\": 1}, \"30\": {\"C\": 1}, \"31\": {\"C\": 1}, \"32\": {\"C\": 1}, \"33\": {\"C\": 1}, \"34\": {\"C\": 1}, \"35\": {\"C\": 1}, \"36\": {\"C\": 1}, \"37\": {\"C\": 1}, \"38\": {\"C\": 1}, \"39\": {\"C\": 1}, \"40\": {\"C\": 1}, \"41\": {\"C\": 1}, \"42\": {\"C\": 1}, \"43\": {\"C\": 1}, \"44\": {\"C\": 1}, \"45\": {\"C\": 1}, \"46\": {\"N\": 1}, \"47\": {\"N\": 1}, \"48\": {\"O\": 1}, \"49\": {\"O\": 1}, \"50\": {\"O\": 1}, \"51\": {\"O\": 1}, \"52\": {\"O\": 1}, \"53\": {\"O\": 1}, \"54\": {\"O\": 1}, \"55\": {\"O\": 1}, \"56\": {\"O\": 1}, \"57\": {\"O\": 1}, \"58\": {\"O\": 1}, \"59\": {\"O\": 1}, \"60\": {\"F\": 1}, \"61\": {\"F\": 1}}" energy=-434.17626953125 free_energy=-434.17626953125 stress="-0.04244692251086235 0.0028523101937025785 -0.004153558053076267 0.0028523101937025785 -0.004849456250667572 -0.0003201182698830962 -0.004153558053076267 -0.0003201182698830962 -0.010623527690768242" pbc="T T T"
Al       6.44782723       7.94094962       8.39549088        0      -1.98135960       0.15386499      -1.84362149
Al       9.77682256       7.94228266       8.36262023        1       0.30825770      -0.94110972       0.90914172
H        4.65030673       9.35385973       7.33887910        2       0.16190943       0.08756670      -0.05664338
H        8.03831871       6.47090078       9.32014981        3       0.08807017      -0.03185062      -0.02949704
H        9.42794330       8.23322832      12.46570128        4      -1.41007066      -0.07239469      -0.94084549
H        9.35749474       8.32456539      14.86660382        5       0.33595043      -0.03783836      -0.33095118
H        6.75934341       8.30392635      14.93284980        6       3.32969427       0.03771458       2.07324743
H        6.04197295       7.54078974       1.76866979        7      -1.76502717      -0.02505035      -0.86931229
H        3.44641002       7.50077126       1.80334381        8       0.59135330      -0.01878057      -0.33333299
H        3.39689978       7.61483608       4.27561545        9       2.26415062       0.02061775       1.02089417
H        2.61005702       3.87207337       8.26864422       10      -0.25802585       0.00813993       0.03694503
H       10.23683756      12.01112263       8.44232305       11       2.08486414      -1.26588619       0.03066282
H        6.05761359      12.08193361       8.42657490       12      -0.31975865      -0.19370757       0.00821735
H        6.09752282      14.47582950       8.38338626       13       0.04143431      -0.28613412       0.01281548
H        6.76393430       3.79321976       8.26850286       14       2.70677972       1.33602953      -0.05150936
H        6.71090418       1.36279617       8.28406867       15       5.19347954      -2.62439084      -0.02580898
H        6.91179938       8.19738862      11.43092422       16       0.01089530      -0.05064081      -3.03422785
H        5.93550337       7.68761203       5.30125404       17      -0.37278023      -0.10020313      -0.26406404
C        8.17345648      10.32359358       8.38548961       18      -8.81416130       2.53580904      -0.02735335
C        8.19174948       7.71287755       6.00194184       19     -14.74639702      -0.79586971      -8.80234146
C        4.68676466       5.51427102       8.28778091       20       0.37189049      -0.23978105      -0.00233904
C        4.76643279       8.12553721      10.77114520       21      -7.42772865       0.14596105       1.05838656
C        4.72680817       8.25610260      12.23267309       22       2.58251047      -0.53599358      -0.44163609
C       10.35192451       8.24183742      12.95667203       23      -0.96337831       0.27418184       0.41966030
C       10.32270230       8.29589466      14.32596418       24      -4.63723850      -0.04860467      -0.65245938
C        4.65054817       8.31928487      15.03442341       25       6.26233196       0.06294779       0.89617634
C        5.94537042       8.28485622      14.35429774       26      -4.58178902      -0.08368491      -1.48286295
C        5.99550575       8.22947998      12.95475193       27      -5.38989019       0.51463652       3.10457587
C        6.91878722       7.54613625       2.32535005       28       2.01382923      -0.01355380      -0.65253127
C        8.14587548       7.50734301       1.62564708       29      -2.90563583       0.08391767      -0.25522047
C        2.51466603       7.52907493       2.33538153       30       3.11341453       0.02454085       1.34993958
C        2.53744745       7.58979288       3.71228290       31      -3.35976648       0.00024871      -0.29984897
C        8.06234632       7.62804477       4.42920527       32       3.74786186       0.01832243       1.70780444
C        6.90561676       7.60566016       3.70302649       33      -2.37411022      -0.09115689       0.17415488
C        4.70615313       4.03740555       8.27982041       34       1.69618416      -0.29053122       0.02188509
C        8.09974236      11.83072965       8.37780684       35       5.19047928      -3.06880140      -0.01011968
C        3.55554461       3.34358573       8.29340396       36      -2.17729688      -1.33569396      -0.13717458
C        3.54590089       1.94735677       8.29522015       37      -0.16320369       0.30847445       0.03818745
C        9.33494316      12.49827542       8.37799182       38      -2.06924438       1.23690677      -0.00540727
C        9.32756335      13.87804524       8.36834371       39      -0.41057628      -1.28977680      -0.07154888
C        7.02708480      12.55919552       8.40337513       40      -4.80181789       1.95201540      -0.05603248
C        7.04547612      13.94295772       8.37732492       41      -1.46068573       0.58837432       0.04237550
C        5.89022253       3.27264669       8.27684285       42      -1.82815707      -1.02038050       0.00803705
C        5.89816345       1.88090875       8.28919166       43      -5.18558407       3.04280806       0.05526690
C        4.69441840       1.13649781       8.31069013       44      -0.62525374       0.16429996      -0.00193267
C        8.20448393      14.68956894       8.34664422       45       0.07850653       0.65559769      -0.04846101
N        4.78535005       8.37712359      16.44173151       46       4.85959435      -0.31630421      -2.68362999
N        8.08597441       7.46819548       0.22194825       47      -5.61263800       0.23033750       2.66121078
O        6.93777809       9.74493750       8.35680490       48       2.24489689       1.07313728       0.10213336
O        9.16965002       7.77796319       6.52595403       49      11.67521763       0.84762752       6.68206120
O        3.55912042       6.08795872       8.28444627       50      -0.85438418       0.38804123      -0.06135166
O        5.80456490       8.08302533      10.16354323       51       4.57152987      -0.09753193      -1.96919596
O        5.81656574       6.08012072       8.31404539       52       0.72163928       0.76887107       0.22213666
O        3.56578637       8.04613814      10.16095066       53       1.79683352       0.14717174       1.31445432
O        9.19182103       9.73735114       8.44437978       54       5.51858807      -2.72957754      -0.05081080
O        6.92620101       7.74283927       6.51435786       55       1.85331464       0.06781100       0.42378694
O        4.63961979       8.46916801       7.73025260       56       0.81868374       0.05807142       0.06031910
O        8.01676155       7.36160616       8.93748802       57       1.81397748      -0.34006163       0.43457723
O        7.08407738       8.19819846      12.35222303       58       5.58243847      -0.13857931       0.14338425
O        5.68442553       7.62774415       4.31095818       59       0.27875137       0.12074042       0.42065698
F        2.29674022       1.39661327       8.28036022       60      -0.15174764      -0.03191555       0.00962603
F       10.50939335      14.43032786       8.38323910       61       2.73838949       1.16099954       0.04935298
62
Lattice="6.76605613 0.0 0.0 3.583332014356295 15.0344311622968 0.0 2.454141077979415 0.9689441283994603 16.834937460478493" Properties=species:S:1:pos:R:3:spacegroup_kinds:I:1:forces:R:3 spacegroup="P 1" unit_cell=conventional occupancy="_JSON {\"0\": {\"Al\": 1}, \"1\": {\"Al\": 1}, \"2\": {\"H\": 1}, \"3\": {\"H\": 1}, \"4\": {\"H\": 1}, \"5\": {\"H\": 1}, \"6\": {\"H\": 1}, \"7\": {\"H\": 1}, \"8\": {\"H\": 1}, \"9\": {\"H\": 1}, \"10\": {\"H\": 1}, \"11\": {\"H\": 1}, \"12\": {\"H\": 1}, \"13\": {\"H\": 1}, \"14\": {\"H\": 1}, \"15\": {\"H\": 1}, \"16\": {\"H\": 1}, \"17\": {\"H\": 1}, \"18\": {\"C\": 1}, \"19\": {\"C\": 1}, \"20\": {\"C\": 1}, \"21\": {\"C\": 1}, \"22\": {\"C\": 1}, \"23\": {\"C\": 1}, \"24\": {\"C\": 1}, \"25\": {\"C\": 1}, \"26\": {\"C\": 1}, \"27\": {\"C\": 1}, \"28\": {\"C\": 1}, \"29\": {\"C\": 1}, \"30\": {\"C\": 1}, \"31\": {\"C\": 1}, \"32\": {\"C\": 1}, \"33\": {\"C\": 1}, \"34\": {\"C\": 1}, \"35\": {\"C\": 1}, \"36\": {\"C\": 1}, \"37\": {\"C\": 1}, \"38\": {\"C\": 1}, \"39\": {\"C\": 1}, \"40\": {\"C\": 1}, \"41\": {\"C\": 1}, \"42\": {\"C\": 1}, \"43\": {\"C\": 1}, \"44\": {\"C\": 1}, \"45\": {\"C\": 1}, \"46\": {\"N\": 1}, \"47\": {\"N\": 1}, \"48\": {\"O\": 1}, \"49\": {\"O\": 1}, \"50\": {\"O\": 1}, \"51\": {\"O\": 1}, \"52\": {\"O\": 1}, \"53\": {\"O\": 1}, \"54\": {\"O\": 1}, \"55\": {\"O\": 1}, \"56\": {\"O\": 1}, \"57\": {\"O\": 1}, \"58\": {\"O\": 1}, \"59\": {\"O\": 1}, \"60\": {\"F\": 1}, \"61\": {\"F\": 1}}" energy=-429.656494140625 free_energy=-429.656494140625 stress="-0.061484772711992264 0.004308914765715599 -0.008284606970846653 0.004308914765715599 -0.008477159775793552 -0.00048746183165349066 -0.008284606970846653 -0.00048746183165349066 -0.015690850093960762" pbc="T T T"
Al       6.47406266       7.91190332       8.38602223        0      -3.46600676       0.59167969      -2.24142385
Al       9.75692758       7.92244942       8.33364743        1       0.71635115      -1.16374314       1.44434261
H        4.62122229       9.32399144       7.31066798        2       0.24351233       0.00754401      -0.03658781
H        8.01032797       6.44118257       9.29129406        3       0.12799524      -0.03725824      -0.01247434
H        9.45620165       8.25161284      12.46953091        4      -2.66088915      -0.04407211      -1.53571057
H        9.38180668       8.31653072      14.83859635        5      -0.35376954      -0.10536339      -0.07530417
H        6.72934946       8.27547017      14.91752240        6       3.34725952      -0.00799985       2.07244873
H        6.06474397       7.52102667       1.78549607        7      -4.16674232      -0.07101654      -2.30128431
H        3.41660912       7.47104384       1.80569639        8       1.08954048       0.05920926      -0.65645319
H        3.36740332       7.58496535       4.24582942        9       2.59213543       0.01151834       1.18362689
H        2.63980054       3.84211211       8.23919109       10      -0.42155293      -0.04409076       0.10494368
H       10.20705789      11.99373261       8.41319200       11       2.41105938      -1.51862860       0.04813107
H        6.06569950      12.08492838       8.41447592       12       0.09937946      -0.03173837       0.02556360
H        6.10242240      14.44636528       8.35987242       13       0.24480821      -0.37467796       0.00127794
H        6.73447058       3.76334637       8.27258237       14       3.35219193       1.76140642      -0.03993730