100
Lattice="8.09643326 0.0 0.0 -2.889708293704605 10.451509097978924 0.0 4.37419593656045e-05 -2.4754086211109022e-05 13.224788449904493" Properties=species:S:1:pos:R:3:spacegroup_kinds:I:1:forces:R:3 spacegroup="P 1" unit_cell=conventional occupancy="_JSON {\"0\": {\"Cd\": 1}, \"1\": {\"Cd\": 1}, \"2\": {\"Cd\": 1}, \"3\": {\"Cd\": 1}, \"4\": {\"H\": 1}, \"5\": {\"H\": 1}, \"6\": {\"H\": 1}, \"7\": {\"H\": 1}, \"8\": {\"H\": 1}, \"9\": {\"H\": 1}, \"10\": {\"H\": 1}, \"11\": {\"H\": 1}, \"12\": {\"H\": 1}, \"13\": {\"H\": 1}, \"14\": {\"H\": 1}, \"15\": {\"H\": 1}, \"16\": {\"H\": 1}, \"17\": {\"H\": 1}, \"18\": {\"H\": 1}, \"19\": {\"H\": 1}, \"20\": {\"H\": 1}, \"21\": {\"H\": 1}, \"22\": {\"H\": 1}, \"23\": {\"H\": 1}, \"24\": {\"H\": 1}, \"25\": {\"H\": 1}, \"26\": {\"H\": 1}, \"27\": {\"H\": 1}, \"28\": {\"H\": 1}, \"29\": {\"H\": 1}, \"30\": {\"H\": 1}, \"31\": {\"H\": 1}, \"32\": {\"H\": 1}, \"33\": {\"H\": 1}, \"34\": {\"H\": 1}, \"35\": {\"H\": 1}, \"36\": {\"C\": 1}, \"37\": {\"C\": 1}, \"38\": {\"C\": 1}, \"39\": {\"C\": 1}, \"40\": {\"C\": 1}, \"41\": {\"C\": 1}, \"42\": {\"C\": 1}, \"43\": {\"C\": 1}, \"44\": {\"C\": 1}, \"45\": {\"C\": 1}, \"46\": {\"C\": 1}, \"47\": {\"C\": 1}, \"48\": {\"C\": 1}, \"49\": {\"C\": 1}, \"50\": {\"C\": 1}, \"51\": {\"C\": 1}, \"52\": {\"C\": 1}, \"53\": {\"C\": 1}, \"54\": {\"C\": 1}, \"55\": {\"C\": 1}, \"56\": {\"C\": 1}, \"57\": {\"C\": 1}, \"58\": {\"C\": 1}, \"59\": {\"C\": 1}, \"60\": {\"C\": 1}, \"61\": {\"C\": 1}, \"62\": {\"C\": 1}, \"63\": {\"C\": 1}, \"64\": {\"C\": 1}, \"65\": {\"C\": 1}, \"66\": {\"C\": 1}, \"67\": {\"C\": 1}, \"68\": {\"C\": 1}, \"69\": {\"C\": 1}, \"70\": {\"C\": 1}, \"71\": {\"C\": 1}, \"72\": {\"N\": 1}, \"73\": {\"N\": 1}, \"74\": {\"N\": 1}, \"75\": {\"N\": 1}, \"76\": {\"N\": 1}, \"77\": {\"N\": 1}, \"78\": {\"N\": 1}, \"79\": {\"N\": 1}, \"80\": {\"N\": 1}, \"81\": {\"N\": 1}, \"82\": {\"N\": 1}, \"83\": {\"N\": 1}, \"84\": {\"Cl\": 1}, \"85\": {\"Cl\": 1}, \"86\": {\"Cl\": 1}, \"87\": {\"Cl\": 1}, \"88\": {\"O\": 1}, \"89\": {\"O\": 1}, \"90\": {\"O\": 1}, \"91\": {\"O\": 1}, \"92\": {\"O\": 1}, \"93\": {\"O\": 1}, \"94\": {\"O\": 1}, \"95\": {\"O\": 1}, \"96\": {\"O\": 1}, \"97\": {\"O\": 1}, \"98\": {\"O\": 1}, \"99\": {\"O\": 1}}" energy=-648.1046142578125 free_energy=-648.1046142578125 stress="-0.008085555396974087 -0.0017297883750870824 -0.0002470764156896621 -0.0017297883750870824 -0.00833734031766653 -8.557554974686354e-05 -0.0002470764156896621 -8.557554974686354e-05 -0.005155516788363457" pbc="T T T"
Cd       1.50278636       9.70917655       4.91454385        0       0.01631827      -0.09195782      -0.10782998
Cd       2.23658067       5.95038063      11.51562166        1       0.04674055       0.11091783      -0.03107649
Cd       3.72105897       0.75948148       8.30859127        2      -0.44533688       0.03942007       0.13866088
Cd       2.95767640       4.49647046       1.71440010        3      -0.06456155      -0.28618819       0.00838493
H       -1.71875280       9.85670111       4.72935652        4      -0.16623431      -0.32524157      -0.14103207
H        5.51198674       5.82013575      11.37060366        5       0.29371768      -0.36506078      -0.02133321
H        6.94593431       0.56549250       8.51720324        6      -0.00380216       0.42969301      -0.00611955
H       -0.31715465       4.63492238       1.87727681        7       0.19824949       0.02750699       0.16028778
H        4.79733402       5.85963020       4.76826838        8      -0.07200049      -0.00734591      -0.03965283
H       -1.00107205       9.80882858      11.33777737        9      -0.60346055      -0.27834231      -0.04373866
H        0.42692930       4.57231235       8.48084064       10       1.03619266       0.79839861       0.06736258
H        6.24168099       0.61033011       1.84370763       11      -0.45917982      -0.25836775       0.13226588
H        0.90506669       6.67019750       4.94145725       12      -0.37183216       0.09884784      -0.17429045
H        2.87380036       9.00265056      11.57521704       13      -0.04188071      -0.05352215      -0.14023063
H        4.28326137       3.75376196       8.23923024       14       0.63342720       0.14985839       0.14098488
H        2.34206214       1.43500898       1.67659298       15       0.35554731      -0.16602428      -0.07362489
H        5.23922031       3.80683648       5.05825198       16      -1.96039343       0.44552183      -0.09088527
H        1.44437247       1.40474746      11.69136006       17       0.11697301       0.02031671      -0.06692389
H        0.00905519       6.63109983       8.15732593       18       0.02168652      -0.19727091       0.09610201
H        3.80071944       9.02065566       1.56486572       19      -1.79781282       0.42981601       0.01559970
H        6.65532341       1.47344141       5.29103833       20       0.04831013       0.46006003       0.07833701
H       -0.01951623       3.71526465      11.92022175       21       0.42680496       1.58484948       0.16451427
H       -1.42578958       8.96121733       7.89370344       22      -0.47537082      -0.80861706       0.15374543
H        5.23012376       6.69769837       1.29613995       23      -0.18473881      -0.18472716      -0.05965371
H        1.20332685       2.33540298       5.21884942       24      -0.14088620      -0.47023308       0.11021094
H        5.46254232       2.93265746      11.83477652       25      -0.31859636       0.19395079       0.01204338
H        4.02372588       8.11378083       8.01331903       26      -0.07752681       0.37704933      -0.09406240
H       -0.23602755       7.55006556       1.38132363       27      -0.05502504      -0.20670930       0.01175524
H        4.33873127       0.83696240       2.54571652       28      -0.08798394      -0.96613383      -0.18746892
H        2.33376921       4.43223951       9.14049011       29      -0.23977211      -0.85265148      -0.03618385
H        0.83643642       9.65371146      10.68768452       30       0.16409275      -1.85438788       0.41561040
H        2.87452079       6.01915462       4.07714988       31       0.43318242       0.27501622      -0.03221232
H        0.52392026      10.00812736       2.23985092       32      -0.99694854      -0.07442348      -0.42754984
H        3.27405387       5.63981710       8.85559279       33      -0.22232819       0.02223418       0.25600308
H        4.70799671       0.44292963      10.95798830       34      -0.13661736      -0.51778728       0.14919177
H        1.96312629       4.81911114       4.36395631       35      -0.29061046      -0.35289305       0.01056550
C       -1.59841426       8.76215812       4.71998168       36      -1.29173946       1.55208135       0.18995047
C        5.39031020       6.88979251      11.38006999       37      -1.19316125       0.18485487      -0.42877352
C        6.78712734       1.65497274       8.46468253       38       1.36745656       0.45448324       0.40018317
C       -0.14079849       3.55966400       1.88636740       39      -0.66058403      -0.47453159      -0.26852483
C        5.38142905       7.92394702       4.72214847       40       1.16306663      -0.43515426       0.01565275
C       -1.64841141       7.78464564      11.30958923       41       1.11954415      -1.42109919       0.54491681
C       -0.18745638       2.56284037       8.49098354       42      -0.21178371      -2.18852282       0.18278316
C        6.84826322       2.69170065       1.86951933       43       0.18593433      -0.35923231       0.46599942
C        5.64411200       6.54340034       4.77619849       44      -2.99944067       0.61621219      -0.01034141
C       -1.88096668       9.13283098      11.35608099       45       1.16178262       1.37069678       0.05791900
C       -0.38669356       3.90514213       8.43712160       46      -1.35920990       0.41826674       0.07112937
C        7.07043320       1.29169732       1.85947461       47      -0.81901342       1.57339787      -0.14756824
C       -1.19976618       6.08154870       4.87532869       48       2.86156869      -0.89873970      -0.02731671
C        4.91439386       9.61462337      11.47001919       49       0.79900706      -0.16765732       0.01064084
C        6.39037684       4.38876348       8.36506325       50       0.11689919      -0.62151670      -0.36922234
C        0.26516257       0.85220725       1.78186222       51       0.74077737      -1.46899605      -0.62323380
C       -0.14174689       6.99557027       4.84674037       52       0.91714442       0.35873085       0.10556230
C        3.91007385       8.68048688      11.48086281       53      -1.59590149      -1.20731187      -0.22492349
C        5.35053798       3.48019893       8.32908868       54      -1.26593649      -1.31907606       0.45703462
C        1.31405509       1.75249782       1.71520451       55       0.39816898       0.94886732       0.74007130
C        6.26131450       3.66082937       5.05835103       56       3.47743273      -0.15408330       0.46431717
C        0.38072479       1.58858412      11.68843284       57      -2.11821604      -0.34424421       0.22470090
C       -1.06400325       6.75867610       8.16997077       58      -1.38464630       1.54343581      -0.48702267
C        4.82819856       8.88800143       1.51234557       59       2.60572791      -1.02722359       0.05811607
C        7.01130058       2.50778387       5.23168801       60      -0.11206508      -0.76953846      -0.19357312
C       -0.38950091       2.74794444      11.82865663       61      -0.38873011      -2.46897268      -0.38116115
C       -1.83813149       7.93713224       8.02323174       62       2.12247920       0.37881598      -0.12190996
C        5.56012025       7.71405590       1.40034825       63       1.46885598       0.94025815      -0.09032795
C        0.26654741       2.88292461       5.19086231       64       0.26089782       1.22868538      -0.37175828
C        6.34860469       2.32091875      11.77188282       65       0.91563123      -0.01804147       0.24745387
C        4.93710911       7.53487500       8.04975720       66      -0.75938946       0.14037907       0.09115455
C       -1.14389178       8.14712586       1.44725676       67      -1.38261867      -1.65629077      -0.08132392
C        4.00722266       8.45495104       4.69064776       68       0.00065294      -0.09463310      -0.30126035
C       -0.20957980       7.23889803      11.31057849       69      -4.13158321      -3.76072311      -0.09985437
C        1.21446116       2.00689761       8.57894805       70      -0.95506543      -0.93346536      -0.71121371
C        5.45864856       3.23949950       1.93412436       71      -1.12725580      -0.83523613      -0.23398080
N       -0.35559442       8.32268443       4.77100381       72       0.99466324      -1.09557772       0.26087025
N        4.10664686       7.33732422      11.38531039       73       0.71075630       0.88374466       0.59006637
N        5.54242271       2.12628782       8.44796011       74       0.24067381       1.06484210      -0.65462458
N        1.11692617       3.07813137       1.83175754       75      -0.15921703      -0.00756302      -0.41623682
N       -0.87572019       4.68750800       4.98425061       76      -1.78871465       0.27556542      -0.41909111
N        7.52685007       0.52914069      11.59667930       77       0.89114225       1.18072462      -0.06115380
N        6.11224398       5.75130312       8.24236970       78      -0.08292678       0.19696732       0.37317234
N       -2.34460039       9.90011312       1.63848717       79      -0.04315218       0.88965607       0.47562259
N        0.38611611       4.23076832       5.00835702       80      -0.05709176      -0.90654182       0.37770364
N        6.24954801       0.98729868      11.65647445       81       0.06809276       0.54318631      -0.23489344
N        4.81463807       6.21933203       8.19583387       82       0.39055577      -0.55733764       0.04129028
N       -1.04497877       9.43840798       1.62366301       83      -0.60191643       1.02026618      -0.15085007
Cl       3.51963385       1.50988328       5.72418303       84       0.02151261      -0.05806583      -0.03706529
Cl       3.14866766       3.75757516      12.33865654       85      -0.00883452      -0.09743446       0.02324945
Cl       1.71039257       8.97718608       7.52410021       86      -0.04175213      -0.04773800      -0.05067073
Cl       2.04113769       6.69416498       0.90757898       87       0.02694274       0.10453192      -0.03952797
O        1.37600123      10.25943642       2.64662423       88       1.16007650       1.36504471       0.62107503
O        2.39162465       5.39655136       9.30517657       89       0.56475431       0.69705331      -0.33113942
O        3.81909332       0.14478738      10.57754420       90       0.21638817       2.35092688      -0.55672890
O        2.83848575       5.03397295       3.93242575       91      -0.14245811       0.19562903       0.14237660
O        3.04711836       7.65149588       4.49050772       92      -0.59550822      -0.48994166       0.08472496
O        0.71528598       7.98624596      11.11235717       93       3.26012707       2.55333257      -0.28756094
O        2.21492989       2.75912302       8.72542196       94       0.54285038       0.84240007       0.18011656
O        4.43448001       2.43683443       2.07324912       95       1.15299559       0.44446492       0.00280806
O        3.82634912       9.70305751       4.83119559       96      -0.15656507       0.64871806       0.27666092
O       -0.10125634       5.92498800      11.40849450       97       0.36856782       1.58596218       0.25790173
O        1.33220633       0.74374401       8.40977433       98       0.39279693      -0.05826485       0.05007698
O        5.27083368       4.48813567       1.78686906       99       0.17020984       0.24500029      -0.02022437
100
Lattice="8.09643326 0.0 0.0 -2.889708293704605 10.451509097978924 0.0 4.37419593656045e-05 -2.4754086211109022e-05 13.224788449904493" Properties=species:S:1:pos:R:3:spacegroup_kinds:I:1:forces:R:3 spacegroup="P 1" unit_cell=conventional occupancy="_JSON {\"0\": {\"Cd\": 1}, \"1\": {\"Cd\": 1}, \"2\": {\"Cd\": 1}, \"3\": {\"Cd\": 1}, \"4\": {\"H\": 1}, \"5\": {\"H\": 1}, \"6\": {\"H\": 1}, \"7\": {\"H\": 1}, \"8\": {\"H\": 1}, \"9\": {\"H\": 1}, \"10\": {\"H\": 1}, \"11\": {\"H\": 1}, \"12\": {\"H\": 1}, \"13\": {\"H\": 1}, \"14\": {\"H\": 1}, \"15\": {\"H\": 1}, \"16\": {\"H\": 1}, \"17\": {\"H\": 1}, \"18\": {\"H\": 1}, \"19\": {\"H\": 1}, \"20\": {\"H\": 1}, \"21\": {\"H\": 1}, \"22\": {\"H\": 1}, \"23\": {\"H\": 1}, \"24\": {\"H\": 1}, \"25\": {\"H\": 1}, \"26\": {\"H\": 1}, \"27\": {\"H\": 1}, \"28\": {\"H\": 1}, \"29\": {\"H\": 1}, \"30\": {\"H\": 1}, \"31\": {\"H\": 1}, \"32\": {\"H\": 1}, \"33\": {\"H\": 1}, \"34\": {\"H\": 1}, \"35\": {\"H\": 1}, \"36\": {\"C\": 1}, \"37\": {\"C\": 1}, \"38\": {\"C\": 1}, \"39\": {\"C\": 1}, \"40\": {\"C\": 1}, \"41\": {\"C\": 1}, \"42\": {\"C\": 1}, \"43\": {\"C\": 1}, \"44\": {\"C\": 1}, \"45\": {\"C\": 1}, \"46\": {\"C\": 1}, \"47\": {\"C\": 1}, \"48\": {\"C\": 1}, \"49\": {\"C\": 1}, \"50\": {\"C\": 1}, \"51\": {\"C\": 1}, \"52\": {\"C\": 1}, \"53\": {\"C\": 1}, \"54\": {\"C\": 1}, \"55\": {\"C\": 1}, \"56\": {\"C\": 1}, \"57\": {\"C\": 1}, \"58\": {\"C\": 1}, \"59\": {\"C\": 1}, \"60\": {\"C\": 1}, \"61\": {\"C\": 1}, \"62\": {\"C\": 1}, \"63\": {\"C\": 1}, \"64\": {\"C\": 1}, \"65\": {\"C\": 1}, \"66\": {\"C\": 1}, \"67\": {\"C\": 1}, \"68\": {\"C\": 1}, \"69\": {\"C\": 1}, \"70\": {\"C\": 1}, \"71\": {\"C\": 1}, \"72\": {\"N\": 1}, \"73\": {\"N\": 1}, \"74\": {\"N\": 1}, \"75\": {\"N\": 1}, \"76\": {\"N\": 1}, \"77\": {\"N\": 1}, \"78\": {\"N\": 1}, \"79\": {\"N\": 1}, \"80\": {\"N\": 1}, \"81\": {\"N\": 1}, \"82\": {\"N\": 1}, \"83\": {\"N\": 1}, \"84\": {\"Cl\": 1}, \"85\": {\"Cl\": 1}, \"86\": {\"Cl\": 1}, \"87\": {\"Cl\": 1}, \"88\": {\"O\": 1}, \"89\": {\"O\": 1}, \"90\": {\"O\": 1}, \"91\": {\"O\": 1}, \"92\": {\"O\": 1}, \"93\": {\"O\": 1}, \"94\": {\"O\": 1}, \"95\": {\"O\": 1}, \"96\": {\"O\": 1}, \"97\": {\"O\": 1}, \"98\": {\"O\": 1}, \"99\": {\"O\": 1}}" energy=-646.7935180664062 free_energy=-646.7935180664062 stress="-0.011923334561288357 -0.0007489912677556276 -0.0007987968274392188 -0.0007489912677556276 -0.008066960610449314 -0.00028770562494173646 -0.0007987968274392188 -0.00028770562494173646 -0.004776276182383299" pbc="T T T"
Cd       1.47802671       9.72685748       4.89281559        0       0.04321207      -0.10914080      -0.00784271
Cd       2.24286477       5.93052272      11.53595848        1      -0.01657459       0.27840662      -0.00944967
Cd       3.71343929       0.74027492       8.28015389        2      -0.51085126       0.07573758       0.29877692
Cd       2.95568153       4.48638153       1.73094372        3       0.08140785      -0.15031083       0.04211529
H       -1.70809548       9.87693437       4.72110556        4      -0.35079485      -1.47757447      -0.08789720
H        5.52761182       5.82188621      11.38256716        5       0.42526105      -1.23508954      -0.02911743
H        6.94515965       0.58934564       8.52991685        6      -0.05818374       0.01915583       0.06354491
H       -0.33962538       4.66360280       1.88904536        7       0.41250095      -1.34347749       0.06948819
H        4.80733110       5.83397422       4.79802700        8      -0.02110381       0.10167915      -0.11445884
H       -0.98943496       9.77907110      11.36033041        9      -0.34816834       0.00971325      -0.11244088
H        0.41648408       4.54445159       8.49290925       10       2.11558247       1.97026944       0.07617422
H        6.22470509       0.59354555       1.85664775       11       0.34705237       0.25459942       0.05468553
H        0.90423769       6.69420939       4.94750202       12      -0.21109691      -0.14301749      -0.24492316
H        2.88041923       8.99544044      11.59179594       13       0.22185993      -0.13431688      -0.07971829
H        4.30350588       3.73557223       8.24754070       14      -0.94112718       0.55071515       0.03073394
H        2.36369277       1.40706706       1.65135134       15      -0.98723263       0.20099670       0.13585690
H        5.23352967       3.78310271       5.04850925       16      -1.35849524       0.58984077      -0.11031602
H        1.41722499       1.43329505      11.68640286       17       0.79983032      -0.24720877       0.00101295
H        0.03435558       6.64236471       8.15884018       18      -1.49094820       0.13113113       0.18706319
H        3.79037445       8.99994895       1.58900110       19      -1.56644547       0.54722095      -0.03467109
H        6.66629563       1.44671080       5.31908821       20       0.01390590       0.59923077       0.07083690
H       -0.01101896       3.69806029      11.94912966       21       0.32466483       1.46655774       0.15032291
H       -1.42680811       8.98054719       7.88251880       22      -0.75046730      -1.51322937       0.32072219
H        5.24764962       6.68744403       1.28090428       23       0.00133630       0.77840972       0.09390415
H        1.19237674       2.34216852       5.24551588       24      -0.28512201      -0.41636780       0.01371111
H        5.48170559       2.90422212      11.84838160       25      -1.16150546       0.63023317      -0.01579217
H        4.02276553       8.09154096       7.99911940       26       0.02855575       0.25066626      -0.13952053
H       -0.25565065       7.56421019       1.36281503       27       0.03118889      -0.50278246       0.04977088
H        4.35780210       0.84515985       2.57277237       28      -0.18727437      -0.76638865      -0.27959716
H        2.35022640       4.45416899       9.13385626       29      -0.49970591      -1.08057821       0.06584467
H        0.85998978       9.66858297      10.70223437       30      -0.11132894      -4.21379471       0.67162406
H        2.88902515       6.02825976       4.04961985       31       0.33048284       0.13104387       0.10822482
H        0.51607602       9.99026612       2.24015323       32       0.29413193       0.47628534       0.15680349
H        3.26529436       5.62314911       8.83923663       33      -0.61917210       0.29211956       0.60838830
H        4.70482474       0.43147332      10.96998053       34      -0.66420853      -0.56905901      -0.13555473
H        1.95235548       4.81132479       4.33454567       35       0.08256909      -0.11248825       0.01878484
C       -1.62220527       8.73614270       4.72217527       36       0.42354524       3.71652222       0.26798561
C        5.40025963       6.86755032      11.39584759       37      -0.95891207       1.86871338      -0.82448709
C        6.76098067       1.66269668       8.49048190       38       2.54424310       1.34621286       0.20272034
C       -0.14555937       3.53875822       1.87235774       39      -0.49228543       1.97062206      -0.23376454
C        5.39708686       7.91796743       4.74341240       40      -0.68388629      -1.24495530      -0.02057519
C       -1.62506800       7.79397870      11.29297027       41      -0.08955845      -3.81626463       0.76358032
C       -0.17200236       2.59100419       8.50359810       42      -1.55359888      -2.86627769       0.01213508
C        6.82631709       2.70351484       1.84194414       43       1.52981055      -1.78856194       0.53740150
C        5.66172130       6.51384488       4.77439646       44      -4.84032822       1.58450460       0.15792485
C       -1.86300875       9.11295737      11.35356888       45       1.18186843       2.22465444      -0.09585849
C       -0.39457031       3.93130215       8.42271336       46      -1.97489095      -1.19565451       0.15545021
C        7.07930837       1.28844280       1.84532526       47      -1.96236360       1.72810745      -0.14564967
C       -1.21490457       6.05491608       4.87923547       48       4.81764221       0.35820335      -0.37419930
C        4.93852800       9.58980094      11.44190928       49      -0.19035847       0.04750286       0.68037081
C        6.38471160       4.39885793       8.34767433       50      -0.28356203      -2.41525292      -0.03443790
C        0.28741257       0.85979564       1.77221644       51      -1.59168911      -2.93067551      -0.40316695
C       -0.14288079       6.98736827       4.82353794       52       0.52884901       0.76089233       0.48860145
C        3.92365134       8.66555418      11.50987521       53      -1.59176803      -1.49939752      -0.78863925
C        5.32204175       3.46245421       8.33900995       54       1.05951035      -0.19260229       0.37238237
C        1.29164016       1.72318290       1.73728873       55       3.99933195       3.54536605       0.18348069
C        6.27517018       3.68843903       5.04515051       56       3.00955248      -1.71629047       0.72357768
C        0.36430553       1.56126203      11.71623874       57      -2.32570601       0.68877119       0.13026288
C       -1.08961053       6.78497206       8.18712852       58       1.69920254      -0.45624349      -0.38195994
C        4.82385664       8.90789455       1.49204790       59       2.39791107      -1.39623690       0.25905934
C        7.01964803       2.48431678       5.25646694       60      -1.24698246       0.78265196      -0.74181592
C       -0.40731399       2.74044537      11.83651396       61       0.22598043      -2.84448290      -0.38536674
C       -1.84084057       7.92957469       8.03714268       62       1.83618283       1.92404795      -0.50645477
C        5.56546876       7.73752874       1.40541383       63       0.53703815      -0.68315625      -0.39134312
C        0.24042016       2.86974285       5.16900379       64       1.78312528       1.81912661       0.12063195
C        6.34006897       2.29941011      11.75749860       65       1.99471736       0.91674083       0.50965542
C        4.94133016       7.51034444       8.02946708       66      -1.40526509       0.48856390       0.26376447
C       -1.16427148       8.14650769       1.45289422       67      -0.40191627      -1.70453501      -0.20942076
C        3.98604428       8.46805973       4.71956885       68       1.54839885      -0.50014603      -0.53188062
C       -0.23046633       7.21127839      11.29946136       69      -1.39880013      -1.83002591      -0.24492958
C        1.22084965       2.02870386       8.56814130       70      -0.86168528      -2.35504246      -0.62653804
C        5.48069185       3.25994314       1.92393073       71      -2.00218415      -0.44144076      -0.14696236
N       -0.35682522       8.31787250       4.78029779       72       0.63082469      -1.59015632      -0.00690678
N        4.11167206       7.30868520      11.37872864       73       0.96740472       1.27410948       1.02198386
N        5.51838220       2.13105558       8.45465906       74       0.49243525       0.48747897      -0.48163617
N        1.12512464       3.10715122       1.82066473       75      -0.78003174      -2.07617331      -0.22113194
N       -0.86051061       4.70690387       4.95910253       76      -2.38747740      -1.26798117      -0.00045605
N        7.53913572       0.50406884      11.61757603       77       0.85739833       1.54339194      -0.31733146
N        6.12624790       5.72423307       8.25848572       78      -0.87000811       2.56560373       0.03841453
N       -2.34737610       9.89648125       1.62468877       79       0.68097687       1.73603952       0.58981931
N        0.38362353       4.25029676       5.02196909       80       0.29570252      -1.85873914       0.02561169
N        6.27313678       0.99816308      11.65143207       81      -0.93466222      -1.66181517      -0.43868744
N        4.82888021       6.20596436       8.19210180       82      -0.08748031      -1.01828504       0.06615422
N       -1.02315673       9.42968019       1.61555639       83      -1.39235783       1.45380294      -0.07842308
Cl       3.53176662       1.52345091       5.74178367       84      -0.02658864      -0.00664090      -0.13643703
Cl       3.13039959       3.75521389      12.36754149       85       0.05178718      -0.17713681      -0.00379257
Cl       1.69942346       8.99454658       7.51781482       86       0.03650951      -0.17698589      -0.10699935
Cl       2.01428597       6.69849661       0.93009818       87       0.08349647       0.05970500      -0.06705528
O        1.39774922      10.27562297       2.66583639       88      -0.17254007       0.65089113       0.01872894
O        2.36822699       5.41231695       9.31879907       89       1.28954589       0.64981335      -0.85223740
O        3.80197704       0.12167668      10.57823419       90       1.13360012       4.94529724      -0.56024677
O        2.85907216       5.03611141       3.94831527       91      -0.47966239       0.03612857       0.05802211
O        3.07636402       7.64007990       4.47390654       92      -1.28745210      -0.55902731       0.07135469
O        0.70433892       8.01341233      11.13216169       93       1.49539578       0.41047329       0.11156989
O        2.23722693       2.74330706       8.70105515       94       0.83591002       1.56880879       0.21781203
O        4.45605945       2.46563322       2.08306161       95       0.89250404       0.22948372      -0.01469095
O        3.80975830       9.71370184       4.85550548       96      -0.31131551       0.53673601       0.35773939
O       -0.09019186       5.90077446      11.40753889       97       0.18036139       1.98769951       0.08506741
O        1.35479490       0.73900391       8.41464668       98      -0.16553929       0.84274197       0.06570231
O        5.28156658       4.51127565       1.78562769       99       0.29636106       0.18158370      -0.07057393
100