67
Lattice="13.07829485 0.0 0.0 0.2809917859691598 13.247300131708206 0.0 5.474548888009003 6.398752489131895 16.00717940575152" Properties=species:S:1:pos:R:3:spacegroup_kinds:I:1:forces:R:3 spacegroup="P 1" unit_cell=conventional occupancy="_JSON {\"0\": {\"Zn\": 1}, \"1\": {\"Zn\": 1}, \"2\": {\"Zn\": 1}, \"3\": {\"Zn\": 1}, \"4\": {\"H\": 1}, \"5\": {\"H\": 1}, \"6\": {\"H\": 1}, \"7\": {\"H\": 1}, \"8\": {\"H\": 1}, \"9\": {\"H\": 1}, \"10\": {\"H\": 1}, \"11\": {\"H\": 1}, \"12\": {\"H\": 1}, \"13\": {\"H\": 1}, \"14\": {\"H\": 1}, \"15\": {\"H\": 1}, \"16\": {\"H\": 1}, \"17\": {\"H\": 1}, \"18\": {\"H\": 1}, \"19\": {\"H\": 1}, \"20\": {\"C\": 1}, \"21\": {\"C\": 1}, \"22\": {\"C\": 1}, \"23\": {\"C\": 1}, \"24\": {\"C\": 1}, \"25\": {\"C\": 1}, \"26\": {\"C\": 1}, \"27\": {\"C\": 1}, \"28\": {\"C\": 1}, \"29\": {\"C\": 1}, \"30\": {\"C\": 1}, \"31\": {\"C\": 1}, \"32\": {\"C\": 1}, \"33\": {\"C\": 1}, \"34\": {\"C\": 1}, \"35\": {\"C\": 1}, \"36\": {\"C\": 1}, \"37\": {\"C\": 1}, \"38\": {\"C\": 1}, \"39\": {\"C\": 1}, \"40\": {\"C\": 1}, \"41\": {\"C\": 1}, \"42\": {\"C\": 1}, \"43\": {\"C\": 1}, \"44\": {\"C\": 1}, \"45\": {\"C\": 1}, \"46\": {\"C\": 1}, \"47\": {\"C\": 1}, \"48\": {\"C\": 1}, \"49\": {\"C\": 1}, \"50\": {\"C\": 1}, \"51\": {\"C\": 1}, \"52\": {\"O\": 1}, \"53\": {\"O\": 1}, \"54\": {\"O\": 1}, \"55\": {\"O\": 1}, \"56\": {\"O\": 1}, \"57\": {\"O\": 1}, \"58\": {\"O\": 1}, \"59\": {\"O\": 1}, \"60\": {\"O\": 1}, \"61\": {\"O\": 1}, \"62\": {\"O\": 1}, \"63\": {\"O\": 1}, \"64\": {\"O\": 1}, \"65\": {\"F\": 1}, \"66\": {\"F\": 1}}" energy=-456.555908203125 free_energy=-456.555908203125 stress="0.00018793458002619445 -5.450394382933155e-06 -5.845314444741234e-05 -5.450394382933155e-06 0.00021332803589757532 -2.633784788486082e-05 -5.845314444741234e-05 -2.633784788486082e-05 0.0001626295124879107" pbc="T T T"
Zn       8.00311515       8.76819200       7.12659921        0      -0.05291601      -0.02101055       0.06100064
Zn      10.47682271       8.71671182       9.16111942        1       0.02788985      -0.05525489      -0.06814077
Zn       8.65711890      11.22230225       9.18333445        2      -0.09090139       0.00694331      -0.05924355
Zn      10.37327447      10.71041082       6.51525275        3       0.06917688       0.05378840       0.06273112
H       13.84404219      15.67117962      14.08473672        4      -0.01464417      -0.01191115       0.00052810
H        9.57569062       8.56747256      13.51087741        5       0.00009702       0.01748963       0.01939750
H        5.23793962       3.92799296       1.80000737        6      -0.00322168      -0.00538927       0.00910938
H       15.00384698      16.83874073      15.90073824        7      -0.02153178      -0.02803771       0.02726284
H        9.98659220      10.74189627       2.33206370        8      -0.01466195       0.00092378      -0.01432493
H        7.35765600       7.49849920       3.26152516        9      -0.00487107      -0.01271035      -0.00431056
H       12.41245096      13.85796649      13.29289387       10      -0.01007824      -0.02352436      -0.03866339
H        6.42712927       5.89882561       2.61830633       11       0.01609807      -0.00336692       0.03439790
H        9.91878393       8.93233778      15.95937722       12       0.01273246      -0.00709163      -0.01343407
H        3.92857061       9.46204464       7.30046733       13       0.01919939       0.00859981      -0.03556278
H       14.72980957       9.50978230       6.52844750       14       0.02384811       0.04752732      -0.04708910
H        4.30079881      10.51479403      10.18080464       15      -0.01894182      -0.00827555      -0.02407107
H        8.89628495      15.40972134       8.89487967       16       0.01096185      -0.02501332       0.04494216
H        9.02598379       4.46141860       9.60836904       17       0.03241922      -0.02747762      -0.01896459
H        9.31947725      15.06150785       5.85426048       18       0.01520120       0.04271873       0.00751412
H       11.16383633      12.45942150      12.68134667       19       0.00964519      -0.02112919       0.02849741
C       12.88105693       9.64219171       7.69301822       20       0.03110605       0.02864992      -0.03395370
C        6.26344001       5.78707062       1.54831568       21       0.02493608       0.03236340      -0.07454933
C        5.59438797       4.67942821       1.09345709       22       0.01151777       0.01349777      -0.01659293
C        5.97937023      10.13224823       8.80326344       23      -0.03817266      -0.04995983      -0.07973485
C       10.83933013      10.87307357      15.71163630       24      -0.02610430      -0.04205220       0.00652799
C       11.26163293      11.87590114      14.78119927       25       0.04211770       0.10776725      -0.10780992
C       10.21893083       9.69230053      15.23565357       26       0.01647337      -0.01146416       0.05984983
C       10.01453608       9.49103891      13.88728454       27      -0.05293941      -0.02599151      -0.03434256
C       10.93901823      11.69187900      13.42184377       28      -0.01059465       0.04911450       0.07197887
C        4.55038679      10.14992366       9.18643357       29      -0.05267206       0.01451378      -0.03818268
C        3.60594468       9.77741800       8.29426302       30      -0.16846721      -0.09401644      -0.03511623
C        9.31353656       9.96314910       1.97669239       31      -0.05096326      -0.02625176       0.08599450
C       14.34972178       9.59790066       7.54362205       32      -0.00888290       0.04546793       0.13568711
C       15.26658291       9.76978428       8.52840523       33       0.07769476      -0.02611873       0.16627485
C        9.16977344      14.79708314       6.89867948       34       0.00660624       0.06167312       0.10055324
C        8.96871376       6.28861828       8.39917811       35       0.16861649       0.09054369       0.05097952
C        8.98285382      15.73321346       7.85629148       36      -0.05101504       0.17747869      -0.01101172
C        8.84244269       4.83125213       8.60053577       37       0.05421086       0.00337216       0.01506907
C        8.67484531       3.90661288       7.62570568       38      -0.06476056      -0.16216356      -0.27063695
C        9.29967281      13.36820981       7.26393173       39       0.04498706       0.04681522      -0.03813159
C       10.05465544      10.33110341      11.52812598       40       0.01858817      -0.10066064      -0.03916985
C        8.87976247       9.34778101       4.37864593       41      -0.04125583      -0.02256350      -0.04320115
C        7.82671470       8.10871126       2.49254438       42      -0.04566933      -0.01045482      -0.03294413
C        8.66715783       9.13214788       2.91913564       43       0.09977853       0.06762987      -0.03043039
C       10.34101995      10.51781804      12.97650326       44       0.01050167      -0.04375042      -0.01853368
C        9.06000165       9.78625670       0.63259437       45       0.02084960       0.04635817      -0.05818804
C        7.59135790       7.87085609       1.12644236       46      -0.01384456      -0.00196560       0.07530682
C        8.19613761       8.75961786       0.17841420       47       0.01100516      -0.00897152      -0.00975180
C        6.78330863       6.76476122       0.65219970       48       0.00694173       0.00276191      -0.00585625
C       12.01960696      13.01678298      15.26257959       49      -0.06120352      -0.06902477      -0.03837968
C       12.58759876      13.96157028      14.36203475       50       0.02400827      -0.01843080       0.04016897
C       13.39444424      14.98049797      14.80124343       51       0.00652964       0.02556004       0.03611487
O        9.39545963       9.85030759       7.97894037       52      -0.01232268       0.02091282      -0.00147720
O       10.17187865       9.14405260      11.06442692       53      -0.00047249       0.11465860       0.08849176
O        9.85181004      10.09908157       4.72048244       54       0.03255634       0.01875018      -0.02525963
O        9.70651576      11.35965712      10.85092685       55       0.01026884       0.01231796       0.07388504
O        8.06408988       8.76547774       5.17276833       56      -0.02001365      -0.02380963      -0.02381845
O        8.14682935       6.86343267       7.61449025       57       0.00334327      -0.00472347      -0.01832142
O        9.93325320      12.63398169       6.42912333       58       0.01034765      -0.06062062      -0.00345352
O       12.36180052       9.05838762       8.70048283       59      -0.00824842       0.01236060       0.02458228
O        6.78383950      10.74768715       9.58681884       60       0.12255637       0.06198285       0.05037087
O       12.27538346      10.25865302       6.74899250       61      -0.05994241      -0.02824408      -0.00372759
O        6.28801437       9.51729584       7.72384000       62      -0.01846314       0.00667155       0.07560262
O        9.91406945       6.83854855       9.06793341       63      -0.13449955      -0.06804505      -0.06311794
O        8.78805547      13.00028726       8.37534204       64      -0.02105545      -0.00030897      -0.01580644
F       14.87640501       9.99852933       9.80310372       65       0.06481211      -0.00600372      -0.16454294
F        8.55729518       4.28900227       6.33149458       66       0.03570827      -0.08342468       0.20702791
67
Lattice="13.07829485 0.0 0.0 0.2809917859691598 13.247300131708206 0.0 5.474548888009003 6.398752489131895 16.00717940575152" Properties=species:S:1:pos:R:3:spacegroup_kinds:I:1:forces:R:3 spacegroup="P 1" unit_cell=conventional occupancy="_JSON {\"0\": {\"Zn\": 1}, \"1\": {\"Zn\": 1}, \"2\": {\"Zn\": 1}, \"3\": {\"Zn\": 1}, \"4\": {\"H\": 1}, \"5\": {\"H\": 1}, \"6\": {\"H\": 1}, \"7\": {\"H\": 1}, \"8\": {\"H\": 1}, \"9\": {\"H\": 1}, \"10\": {\"H\": 1}, \"11\": {\"H\": 1}, \"12\": {\"H\": 1}, \"13\": {\"H\": 1}, \"14\": {\"H\": 1}, \"15\": {\"H\": 1}, \"16\": {\"H\": 1}, \"17\": {\"H\": 1}, \"18\": {\"H\": 1}, \"19\": {\"H\": 1}, \"20\": {\"C\": 1}, \"21\": {\"C\": 1}, \"22\": {\"C\": 1}, \"23\": {\"C\": 1}, \"24\": {\"C\": 1}, \"25\": {\"C\": 1}, \"26\": {\"C\": 1}, \"27\": {\"C\": 1}, \"28\": {\"C\": 1}, \"29\": {\"C\": 1}, \"30\": {\"C\": 1}, \"31\": {\"C\": 1}, \"32\": {\"C\": 1}, \"33\": {\"C\": 1}, \"34\": {\"C\": 1}, \"35\": {\"C\": 1}, \"36\": {\"C\": 1}, \"37\": {\"C\": 1}, \"38\": {\"C\": 1}, \"39\": {\"C\": 1}, \"40\": {\"C\": 1}, \"41\": {\"C\": 1}, \"42\": {\"C\": 1}, \"43\": {\"C\": 1}, \"44\": {\"C\": 1}, \"45\": {\"C\": 1}, \"46\": {\"C\": 1}, \"47\": {\"C\": 1}, \"48\": {\"C\": 1}, \"49\": {\"C\": 1}, \"50\": {\"C\": 1}, \"51\": {\"C\": 1}, \"52\": {\"O\": 1}, \"53\": {\"O\": 1}, \"54\": {\"O\": 1}, \"55\": {\"O\": 1}, \"56\": {\"O\": 1}, \"57\": {\"O\": 1}, \"58\": {\"O\": 1}, \"59\": {\"O\": 1}, \"60\": {\"O\": 1}, \"61\": {\"O\": 1}, \"62\": {\"O\": 1}, \"63\": {\"O\": 1}, \"64\": {\"O\": 1}, \"65\": {\"F\": 1}, \"66\": {\"F\": 1}}" energy=-456.5592956542969 free_energy=-456.5592956542969 stress="0.00016796791169326752 -4.388111392472638e-06 -1.734391480567865e-05 -4.388111392472638e-06 0.00024193785793613642 -1.3850643881596625e-05 -1.734391480567865e-05 -1.3850643881596625e-05 0.00010719495185185224" pbc="T T T"
Zn       8.00103822       8.76851982       7.12609374        0      -0.04000375      -0.02628449       0.05032685
Zn      10.47477307       8.71634122       9.16054107        1       0.03033515      -0.04889106      -0.07093049
Zn       8.65443991      11.22178441       9.18206249        2      -0.07660951       0.01973282      -0.05317763
Zn      10.37179373      10.71184484       6.51649907        3       0.06742723       0.05146351       0.01789713
H       13.84287311      15.67201604      14.08357239        4      -0.02020868      -0.01368038       0.00335966
H        9.57419207       8.56774299      13.50979040        5      -0.00844873       0.00169930       0.01363540
H        5.23729385       3.92869816       1.79958487        6      -0.00873889      -0.01148229       0.01319635
H       15.00220084      16.83967771      15.90081033        7      -0.01013098      -0.01552376       0.00922325
H        9.98561754      10.74241098       2.33147943        8      -0.02752966      -0.01390610      -0.01985098
H        7.35662626       7.49924879       3.26085294        9      -0.01255108      -0.02009156      -0.00205605
H       12.41034806      13.85826433      13.29071890       10      -0.00117107      -0.01944903       0.00884376
H        6.42523392       5.89801270       2.61766010       11       0.01629583       0.00037765       0.00079872
H        9.91751580       8.93243122      15.95857087       12       0.01038657      -0.00585456      -0.00944612
H        3.92777159       9.46300209       7.29970877       13       0.00705890      -0.00532334      -0.05645256
H       14.72909926       9.51145184       6.52664583       14       0.00323637       0.05294726       0.01038098
H        4.30027478      10.51547338      10.17971002       15      -0.02370544      -0.01618495      -0.04530734
H        8.89627506      15.40977747       8.89510411       16       0.01037396      -0.00189154       0.01458190
H        9.02529559       4.46174533       9.60687272       17       0.03447596      -0.03731845       0.00356573
H        9.31874388      15.06253091       5.85461724       18       0.01759086       0.04698747      -0.00213113
H       11.16346996      12.45918265      12.67936019       19       0.00781193      -0.03944250       0.05965094
C       12.87982877       9.64297754       7.69121847       20      -0.02130115       0.02924085      -0.01381027
C        6.26245623       5.78775880       1.54626973       21       0.01542490       0.00595481       0.00265636
C        5.59279402       4.67967338       1.09258439       22       0.02924808       0.04147547      -0.03307950
C        5.97806034      10.13180482       8.80163589       23      -0.03977263       0.02984293       0.04043979
C       10.83802910      10.87337045      15.71099572       24      -0.03313598      -0.05781792      -0.02106709
C       11.26091482      11.87555383      14.77841750       25       0.05652793       0.11850229       0.04883260
C       10.21745767       9.69301797      15.23554245       26       0.00649032      -0.02807534      -0.00312231
C       10.01269034       9.49104205      13.88553365       27      -0.02693390       0.00612283       0.03521135
C       10.93930236      11.69256506      13.42259409       28      -0.06368385      -0.00515858      -0.10374935
C        4.54783734      10.14992112       9.18442152       29      -0.01197898       0.02336948      -0.00826084
C        3.60301014       9.77593531       8.29283233       30      -0.06677266      -0.05851167      -0.00084186
C        9.31223085       9.96300254       1.97627129       31      -0.00626326       0.00875685       0.04626814
C       14.34730200       9.59889886       7.54317732       32       0.13022751       0.05876492       0.16434518
C       15.26701629       9.77085069       8.53015516       33      -0.09695956      -0.08479895      -0.06525010
C        9.16940188      14.79880899       6.89897584       34       0.00569054       0.04165193       0.09991512
C        8.96994425       6.29046901       8.39868630       35      -0.05247744      -0.09928867      -0.08368589
C        8.98154122      15.73565102       7.85605877       36      -0.04936687       0.02678593       0.02706876
C        8.84152705       4.83157305       8.59994786       37       0.03066449      -0.04472890      -0.08473971
C        8.67251234       3.90486033       7.62345426       38      -0.02455006       0.01592514      -0.03638038
C        9.29851961      13.36962048       7.26314240       39       0.06104719      -0.00718266      -0.05401079
C       10.05355919      10.32984717      11.52777489       40      -0.00706081      -0.01813024      -0.07060277
C        8.87829118       9.34726802       4.37725211       41       0.03208920       0.05154241      -0.05563349
C        7.82460893       8.10865726       2.49101045       42       0.02198616       0.04672135       0.01470414
C        8.66805127       9.13207500       2.91764369       43       0.01470476      -0.00456411      -0.01515524
C       10.34027573      10.51724356      12.97526297       44       0.03189519      -0.00206566       0.02324131
C        9.05939277       9.78630033       0.63138249       45      -0.00452345       0.03000910      -0.03042185
C        7.59034624       7.87146629       1.12634203       46      -0.02504446      -0.00803641       0.01114897
C        8.19490435       8.76012061       0.17698508       47       0.02325756       0.00384252       0.02409644
C        6.78262732       6.76533187       0.65169362       48      -0.01324742      -0.00901611      -0.03641324
C       12.01752631      13.01619455      15.26230350       49      -0.01355439      -0.01054390      -0.07864777
C       12.58604071      13.96176770      14.36125654       50       0.01136210      -0.01982215       0.01970957
C       13.39237425      14.98192937      14.80029203       51      -0.00324887      -0.00744809       0.01950835
O        9.39500194       9.85168673       7.97714049       52      -0.02999029      -0.01059117       0.02022750
O       10.16950141       9.14300915      11.06475213       53       0.00443617       0.08738206       0.06341457
O        9.85034966      10.10093998       4.71811380       54      -0.00400701      -0.01730300      -0.00330239
O        9.70448081      11.35935566      10.85003577       55       0.03144464      -0.04098789       0.10202807
O        8.06215411       8.76655479       5.17076760       56      -0.03719763      -0.04165977       0.01016440
O        8.14625936       6.86364608       7.61303369       57       0.02016011       0.01397380      -0.01013936
O        9.93098986      12.63352963       6.42691201       58      -0.02343981       0.00458470       0.04142211
O       12.35971812       9.05911246       8.69938005       59       0.00316864       0.02215625       0.00509939
O        6.78369259      10.74783507       9.58685285       60       0.04399134       0.01266192      -0.00271799
O       12.27288639      10.25901611       6.74717277       61      -0.03013240      -0.04333638       0.01273468
O        6.28594923       9.51773066       7.72394827       62       0.01294102      -0.03456207       0.00132471
O        9.91111383       6.83624446       9.06589416       63       0.07210603       0.09884755       0.07122634
O        8.78635150      13.00053583       8.37439217       64      -0.00783937       0.01169086      -0.03612044
F       14.87659926       9.99873797       9.80082667       65       0.04282591       0.01734772      -0.04188317
F        8.55704504       4.28808677       6.33431154       66       0.01489771      -0.05140796       0.03813910
67
Lattice="13.07829485 0.0 0.0 0.2809917859691598 13.247300131708206 0.0 5.474548888009003 6.398752489131895 16.00717940575152" Properties=species:S:1:pos:R:3:spacegroup_kinds:I:1:forces:R:3 spacegroup="P 1" unit_cell=conventional occupancy="_JSON {\"0\": {\"Zn\": 1}, \"1\": {\"Zn\": 1}, \"2\": {\"Zn\": 1}, \"3\": {\"Zn\": 1}, \"4\": {\"H\": 1}, \"5\": {\"H\": 1}, \"6\": {\"H\": 1}, \"7\": {\"H\": 1}, \"8\": {\"H\": 1}, \"9\": {\"H\": 1}, \"10\": {\"H\": 1}, \"11\": {\"H\": 1}, \"12\": {\"H\": 1}, \"13\": {\"H\": 1}, \"14\": {\"H\": 1}, \"15\": {\"H\": 1}, \"16\": {\"H\": 1}, \"17\": {\"H\": 1}, \"18\": {\"H\": 1}, \"19\": {\"H\": 1}, \"20\": {\"C\": 1}, \"21\": {\"C\": 1}, \"22\": {\"C\": 1}, \"23\": {\"C\": 1}, \"24\": {\"C\": 1}, \"25\": {\"C\": 1}, \"26\": {\"C\": 1}, \"27\": {\"C\": 1}, \"28\": {\"C\": 1}, \"29\": {\"C\": 1}, \"30\": {\"C\": 1}, \"31\": {\"C\": 1}, \"32\": {\"C\": 1}, \"33\": {\"C\": 1}, \"34\": {\"C\": 1}, \"35\": {\"C\": 1}, \"36\": {\"C\": 1}, \"37\": {\"C\": 1}, \"38\": {\"C\": 1}, \"39\": {\"C\": 1}, \"40\": {\"C\": 1}, \"41\": {\"C\": 1}, \"42\": {\"C\": 1}, \"43\": {\"C\": 1}, \"44\": {\"C\": 1}, \"45\": {\"C\": 1}, \"46\": {\"C\": 1}, \"47\": {\"C\": 1}, \"48\": {\"C\": 1}, \"49\": {\"C\": 1}, \"50\": {\"C\": 1}, \"51\": {\"C\": 1}, \"52\": {\"O\": 1}, \"53\": {\"O\": 1}, \"54\": {\"O\": 1}, \"55\": {\"O\": 1}, \"56\": {\"O\": 1}, \"57\": {\"O\": 1}, \"58\": {\"O\": 1}, \"59\": {\"O\": 1}, \"60\": {\"O\": 1}, \"61\": {\"O\": 1}, \"62\": {\"O\": 1}, \"63\": {\"O\": 1}, \"64\": {\"O\": 1}, \"65\": {\"F\": 1}, \"66\": {\"F\": 1}}" energy=-456.5607604980469 free_energy=-456.5607604980469 stress="0.0001940115325851366 2.4364238925045356e-05 -2.9208609703346156e-05 2.4364238925045356e-05 0.00017671147361397743 3.0186691219569184e-05 -2.9208609703346156e-05 3.0186691219569184e-05 7.107635610736907e-05" pbc="T T T"
Zn       7.99934988       8.76710997       7.12521833        0      -0.02696680       0.00136204       0.04742948
Zn      10.47500095       8.71579841       9.15999022        1       0.01823303      -0.02933243      -0.06893162
Zn       8.65310264      11.22194828       9.18114648        2      -0.07306595       0.02590604      -0.05553737
Zn      10.37074174      10.71230757       6.51573260        3       0.05641385       0.05137382       0.01490180
H       13.84085997      15.67256011      14.08271457        4      -0.01055713      -0.00832780       0.00176854
H        9.57378145       8.56816600      13.50906965        5      -0.03220285      -0.04504079      -0.00639461
H        5.23652583       3.92940042       1.79926344        6       0.00107345       0.00656650      -0.01320501
H       15.00038414      16.84001140      15.89996959        7       0.01469143       0.01910922      -0.02708685
H        9.98385057      10.74253100       2.32976078        8      -0.03028588      -0.01718265      -0.01522384
H        7.35512586       7.49944054       3.25984084        9      -0.01155763      -0.01669066       0.00267097
H       12.40908628      13.85863758      13.28955558       10       0.00143660      -0.01528985       0.02021869
H        6.42520021       5.89836781       2.61715207       11       0.00872859      -0.00793510      -0.02513888
H        9.91651240       8.93293590      15.95757697       12       0.01151294       0.00819387      -0.02392806
H        3.92697914       9.46343618       7.29758698       13      -0.00443022       0.00644542      -0.01760387
H       14.72765416       9.51335045       6.52599705       14       0.00124619       0.05203576       0.03672838
H        4.29763739      10.51440505      10.17846547       15      -0.01938035      -0.00753716      -0.03471342
H        8.89544781      15.40999569       8.89490356       16       0.00568892       0.00964950       0.01222299
H        9.02472507       4.46064632       9.60563127       17       0.02983817      -0.02992390      -0.01281440
H        9.31878416      15.06395011       5.85403597       18       0.01139716       0.04303502       0.02949783
H       11.16254143      12.45910026      12.67963875       19       0.01523664       0.00151376       0.00629835
C       12.87795414       9.64426749       7.69036077       20       0.01928365       0.00622138       0.01150797
C        6.26153349       5.78754555       1.54513548       21       0.04012368       0.05283636       0.01262772
C        5.59225464       4.68035807       1.09069355       22      -0.00397792      -0.02058330      -0.00084344
C        5.97582007      10.13339567       8.80131796       23       0.02055508       0.00098654      -0.01052926
C       10.83666479      10.87345268      15.70945046       24      -0.01629879      -0.00542477      -0.04668231
C       11.26028834      11.87772406      14.77733577       25       0.00391520       0.02896245       0.01525170
C       10.21520937       9.69380294      15.23330997       26       0.01593764      -0.04864534       0.05761211
C       10.01097931       9.49033025      13.88416927       27       0.00502091       0.07635921       0.02939287
C       10.93797594      11.69338156      13.42069568       28      -0.06758154      -0.06323779      -0.02057496
C        4.54685641      10.15088683       9.18316139       29      -0.05516255       0.01590327      -0.00581934
C        3.60160909       9.77628568       8.29199333       30      -0.03100730      -0.07374582      -0.05668589
C        9.31013454       9.96295958       1.97507357       31       0.02462782       0.05007835       0.00873433
C       14.34775384       9.60041176       7.54420998       32      -0.03122245       0.04133292      -0.00269398
C       15.26558376       9.77065809       8.52825178       33       0.01351899      -0.05382682       0.04125789
C        9.16862308      14.80005159       6.89926420       34       0.01984751       0.01691622       0.04529352
C        8.96955907       6.29027992       8.39730880       35      -0.07110347      -0.05945516      -0.08964548
C        8.97929597      15.73694257       7.85595650       36      -0.04104359      -0.06557268       0.02352315
C        8.84013995       4.83103170       8.59847768       37       0.04394972      -0.06466658      -0.10143092
C        8.67046007       3.90309268       7.62086558       38      -0.00798400       0.15037540       0.09746659
C        9.29824092      13.36957086       7.26183611       39       0.07227997       0.03679550      -0.09276497
C       10.05122850      10.32924299      11.52559324       40       0.04134398      -0.00681652       0.07720056
C        8.87743933       9.34905241       4.37452697       41      -0.03644565      -0.01578066       0.04112720
C        7.82284032       8.10940575       2.49037444       42       0.02026341       0.04291767       0.02165683
C        8.66671416       9.13279007       2.91626926       43       0.00138117      -0.01386444      -0.01530820
C       10.33977984      10.51677714      12.97433870       44       0.02011117       0.01481004      -0.00137573
C        9.05827953       9.78799043       0.62950854       45      -0.06214201      -0.05016772       0.02805960
C        7.58822979       7.87230956       1.12630160       46      -0.02185925      -0.00917960      -0.02613452
C        8.19299055       8.76064343       0.17618258       47       0.05409405       0.03696026       0.03761791
C        6.78097854       6.76612599       0.65076665       48      -0.01317304      -0.01387981      -0.03590924
C       12.01610137      13.01735734      15.26048453       49      -0.00695400      -0.00535452      -0.01951359
C       12.58442442      13.96241308      14.36051253       50       0.03765180       0.01030621      -0.00759195
C       13.39191647      14.98234732      14.79985145       51      -0.04145154      -0.03200701       0.00178653
O        9.39576585       9.85291214       7.97684962       52      -0.05643590      -0.02888623       0.01406045
O       10.16741294       9.14377524      11.06451904       53       0.01127656      -0.01494840       0.00638720
O        9.84917249      10.10168614       4.71712868       54      -0.00477515      -0.01321009      -0.01173335
O        9.70332678      11.35792669      10.85037383       55      -0.01398714       0.05534993       0.01852377
O        8.05985253       8.76606006       5.16856571       56       0.03109126       0.01363354      -0.03655122
O        8.14443549       6.86354994       7.61133424       57       0.06107569      -0.02301380       0.02344336
O        9.93037709      12.63344431       6.42527894       58      -0.02497190       0.01668033       0.04291227
O       12.35818182       9.05885890       8.69814815       59       0.02116700       0.03351281      -0.00714925
O        6.78220687      10.74942159       9.58658843       60       0.02448888       0.00015330      -0.02258265
O       12.27063469      10.25891781       6.74621668       61      -0.00676267      -0.04064415       0.01143724
O        6.28402504       9.51787177       7.72284036       62       0.00818841       0.00143236       0.05921245
O        9.90974399       6.83905901       9.06500437       63       0.03076369       0.03277329       0.04414088
O        8.78566879      13.00171725       8.37195921       64      -0.02819879      -0.02910712       0.02249852
F       14.87617082       9.99954075       9.79856640       65       0.02955513       0.01870525      -0.00545463
F        8.55675093       4.28848586       6.33477798       66       0.00397537      -0.04991487      -0.04691637
67