90
Lattice="7.4111485 0.0 0.0 -0.4798205474622734 10.177301543482061 0.0 2.192877066330859e-05 -2.6393486004865458e-05 11.501519669948813" Properties=species:S:1:pos:R:3:spacegroup_kinds:I:1:forces:R:3 spacegroup="P 1" unit_cell=conventional occupancy="_JSON {\"0\": {\"Cd\": 1}, \"1\": {\"Cd\": 1}, \"2\": {\"H\": 1}, \"3\": {\"H\": 1}, \"4\": {\"H\": 1}, \"5\": {\"H\": 1}, \"6\": {\"H\": 1}, \"7\": {\"H\": 1}, \"8\": {\"H\": 1}, \"9\": {\"H\": 1}, \"10\": {\"H\": 1}, \"11\": {\"H\": 1}, \"12\": {\"H\": 1}, \"13\": {\"H\": 1}, \"14\": {\"H\": 1}, \"15\": {\"H\": 1}, \"16\": {\"H\": 1}, \"17\": {\"H\": 1}, \"18\": {\"H\": 1}, \"19\": {\"H\": 1}, \"20\": {\"H\": 1}, \"21\": {\"H\": 1}, \"22\": {\"H\": 1}, \"23\": {\"H\": 1}, \"24\": {\"H\": 1}, \"25\": {\"H\": 1}, \"26\": {\"H\": 1}, \"27\": {\"H\": 1}, \"28\": {\"H\": 1}, \"29\": {\"H\": 1}, \"30\": {\"C\": 1}, \"31\": {\"C\": 1}, \"32\": {\"C\": 1}, \"33\": {\"C\": 1}, \"34\": {\"C\": 1}, \"35\": {\"C\": 1}, \"36\": {\"C\": 1}, \"37\": {\"C\": 1}, \"38\": {\"C\": 1}, \"39\": {\"C\": 1}, \"40\": {\"C\": 1}, \"41\": {\"C\": 1}, \"42\": {\"C\": 1}, \"43\": {\"C\": 1}, \"44\": {\"C\": 1}, \"45\": {\"C\": 1}, \"46\": {\"C\": 1}, \"47\": {\"C\": 1}, \"48\": {\"C\": 1}, \"49\": {\"C\": 1}, \"50\": {\"C\": 1}, \"51\": {\"C\": 1}, \"52\": {\"C\": 1}, \"53\": {\"C\": 1}, \"54\": {\"C\": 1}, \"55\": {\"C\": 1}, \"56\": {\"C\": 1}, \"57\": {\"C\": 1}, \"58\": {\"C\": 1}, \"59\": {\"C\": 1}, \"60\": {\"C\": 1}, \"61\": {\"C\": 1}, \"62\": {\"N\": 1}, \"63\": {\"N\": 1}, \"64\": {\"N\": 1}, \"65\": {\"N\": 1}, \"66\": {\"N\": 1}, \"67\": {\"N\": 1}, \"68\": {\"N\": 1}, \"69\": {\"N\": 1}, \"70\": {\"N\": 1}, \"71\": {\"N\": 1}, \"72\": {\"N\": 1}, \"73\": {\"N\": 1}, \"74\": {\"N\": 1}, \"75\": {\"N\": 1}, \"76\": {\"N\": 1}, \"77\": {\"N\": 1}, \"78\": {\"N\": 1}, \"79\": {\"N\": 1}, \"80\": {\"N\": 1}, \"81\": {\"N\": 1}, \"82\": {\"N\": 1}, \"83\": {\"N\": 1}, \"84\": {\"N\": 1}, \"85\": {\"N\": 1}, \"86\": {\"O\": 1}, \"87\": {\"O\": 1}, \"88\": {\"O\": 1}, \"89\": {\"O\": 1}}" energy=-623.8822631835938 free_energy=-623.8822631835938 stress="0.004220465663820505 -0.0021466240286827087 -0.0003995447768829763 -0.0021466240286827087 0.0019789929501712322 -0.0004270989156793803 -0.0003995447768829763 -0.0004270989156793803 -0.005145465489476919" pbc="T T T"
Cd      -0.47979636      10.17727207       0.00002594        0       0.15588811      -0.22563538       0.17960200
Cd       3.70561650      -0.00004154       5.75079180        1       0.10823195      -0.27952507       0.16054820
H        0.52121998       3.40814174      11.50958026        2       0.02744836       0.05406258       0.05858563
H        2.75960694       6.70973748       5.75964977        3      -0.02402708      -0.05667531       0.02696517
H        6.46379807       6.70961669       0.05081369        4       0.00359711      -0.04057261      -0.05176866
H        4.22879223       3.40930643       5.80170472        5      -0.00588997       0.02419768      -0.07814838
H        1.39002137       5.61130891      10.67507801        6       0.04810453       0.13389027       0.04616641
H        1.88570907       4.50887185       4.92789569        7      -0.05090515      -0.15048097       0.05827040
H        5.58671486       4.50707389       0.88253541        8       0.01276724      -0.02210450       0.04983501
H        5.10374053       5.61409675       6.63265749        9      -0.01029824       0.00272344       0.05585967
H        1.53627006       6.09814223       8.27591401       10      -0.00910958       0.05253100       0.00630487
H        1.74734522       4.01964783       2.52541418       11      -0.20028703      -0.31743145      -0.07580965
H        5.45418256       4.01935852       3.28388869       12      -0.00629040      -0.06614694      -0.00217431
H        5.24142829       6.09825519       9.03370098       13       0.03973220       0.08210175       0.02302096
H        0.74385219       4.43972388       6.58016358       14       0.02490686      -0.01913613      -0.00936460
H        2.53985117       5.68631876       0.82980779       15      -0.06518815      -0.02935579      -0.06529956
H        6.24102827       5.67784110       4.98005873       16      -0.00066174       0.03508434       0.00327271
H        4.45038709       4.43971228      10.73142210       17       0.03086838      -0.04880095      -0.11832578
H        6.34129927      -0.00196920       8.22501229       18      -0.07657378      -0.12163906       0.04695846
H        4.35296579      10.11980717       2.47372499       19       0.08491971       0.19145200       0.01616108
H        0.64274673      10.12010072       3.33563563       20       0.01571707       0.04778337      -0.07549267
H        2.63263781      -0.00086636       9.08464504       21      -0.06651111      -0.12713724      -0.04018377
H        5.76560659       2.11541021       1.07442006       22       0.32114446      -0.17772374       0.08120500
H        4.92321829       8.00457954       6.82477819       23      -0.23473507       0.15860996       0.04286449
H        1.21711872       8.00424843      10.48634647       24      -0.39865488       0.22815730      -0.05083482
H        2.06681717       2.11358236       4.73593543       25       0.07051489      -0.12094060      -0.01796140
H        6.91663333       1.96508573       2.20939651       26      -0.02188501      -0.15207209      -0.22931513
H        3.77818512       8.15380156       7.96090978       27       0.01524274       0.14848734      -0.25743210
H        0.07272414       8.15311810       9.35099236       28      -0.01385833       0.14799237       0.19753811
H        3.20452737       1.96501400       3.60009440       29       0.00968002      -0.14552841       0.18644401
C        0.20214844       2.68158004       9.49707878       30       0.13736935       0.37077349      -0.02444628
C        3.08190171       7.43667463       3.74633615       31      -0.21252719      -0.34563208       0.00768352
C        6.78733144       7.43642636       2.06415747       32      -0.23402455      -0.20119852      -0.05858216
C        3.90127797       2.68213452       7.81448542       33       0.08248489       0.32782459      -0.01164052
C        0.60798738       3.62853283      10.44746838       34      -0.25728390      -0.40492767      -0.26850918
C        2.66857127       6.49193952       4.69653736       35       0.27133209       0.28397673      -0.31263125
C        6.38169376       6.49199893       1.11369701       36       0.18187279       0.26962620       0.27283323
C        4.30410250       3.62604382       6.86433192       37      -0.02820014      -0.07684184       0.28882781
C        1.07568172       4.84633894       9.97272200       38       0.03522968       0.18736285      -0.27850309
C        2.19758270       5.27145051       4.22274705       39      -0.12420712      -0.05563488      -0.30713966
C        5.90920050       5.27333022       1.58714506       40      -0.08534199      -0.22346289       0.16334045
C        4.78496290       4.84639912       7.33778624       41      -0.03339797       0.09556235       0.16686782
C        1.14095310       5.13534265       8.59831490       42       0.15205893       0.01980460       0.23908402
C        2.10700849       4.98492341       2.84797882       43       0.38575575       0.49169511       0.19561304
C        5.84267340       4.98388471       2.96071145       44      -0.04342548       0.12619546      -0.12804560
C        4.85309110       5.13394420       8.71310007       45       0.10360193       0.00116616      -0.38380069
C        0.72537875       4.21470959       7.64265464       46      -0.07394704      -0.12990449       0.03712653
C        2.54396090       5.90629038       1.89167005       47       0.05259494       0.17145483       0.27544916
C        6.26184371       5.90701956       3.91836768       48      -0.02581136       0.19149657      -0.17675278
C        4.43361746       4.21335961       9.66484848       49      -0.14892384      -0.12405493       0.21313350
C        0.25846957       2.99460947       8.11819496       50      -0.01974240      -0.06149814       0.26350719
C        3.02259919       7.12764059       2.36746303       51      -0.17255928      -0.29309127       0.32896045
C        6.71045620       7.13979213       3.44204719       52       0.10606249      -0.54153758      -0.15224347
C        3.95301173       2.99720393       9.19190718       53       0.14249586       0.00991389      -0.29389292
C        6.79218269       0.95861759       8.44511601       54       0.05264184       0.32488513      -0.71646839
C        3.89854298       9.16265903       2.68860433       55      -0.15282500      -0.45644832      -0.23972654
C        0.18656273       9.15922663       3.11618575       56       0.18673792      -0.00687960       0.54725122
C        3.08623810       0.95841195       8.86699970       57       0.06724094       0.28343955       0.50079811
C        6.90690896       1.71737151       6.10326863       58      -0.30762994      -0.34431648       0.09261136
C        3.78537224       8.40235976       0.35297425       59      -0.17038721       0.14102505       0.31338853
C        0.07460314       8.40350051       5.45727405       60       0.07586105       0.22235082      -0.30332252
C        3.20423589       1.71526355      11.20818050       61      -0.09918588      -0.23573238      -0.27929002
N        7.07763185       1.39598080       9.65668973       62       0.05670327       0.15377960       0.12180233
N        3.61437806       8.72220749       3.90619921       63       0.01658659       0.08590156       0.06674916
N       -0.08780551       8.72200995       1.90409112       64      -0.11277269       0.02916500      -0.43474391
N        3.37335534       1.39609553       7.65471863       65      -0.01580545      -0.00409648      -0.22517210
N        7.13057730       1.87177696       7.46458973       66      -0.14982243      -0.37880427       0.57031196
N        3.55549364       8.24986382       1.71893158       67       0.27967894       0.39864060       0.07940722
N       -0.14401141       8.25010951       4.09134253       68       0.00159179       0.34290490      -0.12761146
N        3.42300996       1.87188830       9.84145709       69      -0.19943775      -0.36429885      -0.16853911
N        0.24018299       2.29386784       5.14365702       70      -0.32627016      -0.06679812      -0.08916181
N        3.04359587       7.82506122      10.89491962       71       0.15740813      -0.13032490      -0.20805502
N        6.74779820       7.82573076       6.41701132       72       0.08000469      -0.14197442       0.16134188
N        3.94288025       2.29248755       0.66569103       73      -0.14809272       0.06955256       0.25226855
N        7.05352415       1.90565039       3.99187160       74      -0.14736073      -0.25995874      -0.24363044
N        3.64302834       8.21252534       9.74281742       75      -0.21831480      -0.02368482      -0.26825076
N       -0.06831100       8.21284106       7.56922366       76      -0.04950164       0.08293654       0.21114203
N        3.34706793       1.90852805       1.81849679       77      -0.32158580      -0.30596280       0.22954643
N        6.02039043       1.12497620       4.24903702       78      -0.01938581       0.19909585      -0.16524747
N        4.66294643       8.99301154       9.99886592       79       0.22792096       0.05280875      -0.10860090
N        0.95634010       8.99298314       7.31191680       80       0.23094994       0.01412444       0.13906556
N        2.30548426       1.12525113       1.55893141       81       0.36076367       0.34945625       0.16203845
N        5.88373766       0.98371954       5.58296107       82       0.78119183       0.37557441      -0.05577832
N        4.78448632       9.13757541      11.33346339       83      -0.02984167       0.07118893      -0.03459644
N        1.08439569       9.13459081       5.97805830       84      -0.29288685      -0.00988317       0.11444235
N        2.19495870       0.98403901       0.22721675       85       0.13279739       0.02356146      -0.01413327
O        6.70744073       1.83714110       1.24309402       86      -0.04990327       0.07417956      -0.20960894
O        3.98374025       8.28120770       6.99339969       87      -0.12180232       0.08645941      -0.22493325
O        0.27282146       8.28285169      10.31809340       88       0.11625993      -0.02571350       0.23344418
O        3.00207840       1.83700540       4.56695424       89       0.13311787       0.07861026       0.09753120
90
Lattice="7.4111485 0.0 0.0 -0.4798205474622734 10.177301543482061 0.0 2.192877066330859e-05 -2.6393486004865458e-05 11.501519669948813" Properties=species:S:1:pos:R:3:spacegroup_kinds:I:1:forces:R:3 spacegroup="P 1" unit_cell=conventional occupancy="_JSON {\"0\": {\"Cd\": 1}, \"1\": {\"Cd\": 1}, \"2\": {\"H\": 1}, \"3\": {\"H\": 1}, \"4\": {\"H\": 1}, \"5\": {\"H\": 1}, \"6\": {\"H\": 1}, \"7\": {\"H\": 1}, \"8\": {\"H\": 1}, \"9\": {\"H\": 1}, \"10\": {\"H\": 1}, \"11\": {\"H\": 1}, \"12\": {\"H\": 1}, \"13\": {\"H\": 1}, \"14\": {\"H\": 1}, \"15\": {\"H\": 1}, \"16\": {\"H\": 1}, \"17\": {\"H\": 1}, \"18\": {\"H\": 1}, \"19\": {\"H\": 1}, \"20\": {\"H\": 1}, \"21\": {\"H\": 1}, \"22\": {\"H\": 1}, \"23\": {\"H\": 1}, \"24\": {\"H\": 1}, \"25\": {\"H\": 1}, \"26\": {\"H\": 1}, \"27\": {\"H\": 1}, \"28\": {\"H\": 1}, \"29\": {\"H\": 1}, \"30\": {\"C\": 1}, \"31\": {\"C\": 1}, \"32\": {\"C\": 1}, \"33\": {\"C\": 1}, \"34\": {\"C\": 1}, \"35\": {\"C\": 1}, \"36\": {\"C\": 1}, \"37\": {\"C\": 1}, \"38\": {\"C\": 1}, \"39\": {\"C\": 1}, \"40\": {\"C\": 1}, \"41\": {\"C\": 1}, \"42\": {\"C\": 1}, \"43\": {\"C\": 1}, \"44\": {\"C\": 1}, \"45\": {\"C\": 1}, \"46\": {\"C\": 1}, \"47\": {\"C\": 1}, \"48\": {\"C\": 1}, \"49\": {\"C\": 1}, \"50\": {\"C\": 1}, \"51\": {\"C\": 1}, \"52\": {\"C\": 1}, \"53\": {\"C\": 1}, \"54\": {\"C\": 1}, \"55\": {\"C\": 1}, \"56\": {\"C\": 1}, \"57\": {\"C\": 1}, \"58\": {\"C\": 1}, \"59\": {\"C\": 1}, \"60\": {\"C\": 1}, \"61\": {\"C\": 1}, \"62\": {\"N\": 1}, \"63\": {\"N\": 1}, \"64\": {\"N\": 1}, \"65\": {\"N\": 1}, \"66\": {\"N\": 1}, \"67\": {\"N\": 1}, \"68\": {\"N\": 1}, \"69\": {\"N\": 1}, \"70\": {\"N\": 1}, \"71\": {\"N\": 1}, \"72\": {\"N\": 1}, \"73\": {\"N\": 1}, \"74\": {\"N\": 1}, \"75\": {\"N\": 1}, \"76\": {\"N\": 1}, \"77\": {\"N\": 1}, \"78\": {\"N\": 1}, \"79\": {\"N\": 1}, \"80\": {\"N\": 1}, \"81\": {\"N\": 1}, \"82\": {\"N\": 1}, \"83\": {\"N\": 1}, \"84\": {\"N\": 1}, \"85\": {\"N\": 1}, \"86\": {\"O\": 1}, \"87\": {\"O\": 1}, \"88\": {\"O\": 1}, \"89\": {\"O\": 1}}" energy=-623.7401123046875 free_energy=-623.7401123046875 stress="0.006471349857747555 -0.002217649482190609 -0.00180768221616745 -0.002217649482190609 0.0023971262853592634 -0.0020333966240286827 -0.00180768221616745 -0.0020333966240286827 -0.005298016592860222" pbc="T T T"
Cd      -0.46271028      10.14798641       0.02957315        0       0.11547822      -0.20817891       0.16562568
Cd       3.73402470      -0.02911875       5.78021587        1       0.02820654      -0.27268824       0.15133882
H        0.54840642       3.38137027      11.53871705        2      -0.00370742       0.04584159       0.03845218
H        2.74014088       6.68044807       5.78767152        3       0.12133854       0.03015597       0.16824147
H        6.48604222       6.68075272       0.08062856        4       0.02776700      -0.01978207      -0.11156413
H        4.25711578       3.37991475       5.83140727        5      -0.00953755       0.03730816      -0.14350957
H        1.39250844       5.58237012      10.70056308        6       0.23211384       0.43393710       0.30700505
H        1.91554248       4.47909614       4.95498034        7      -0.06010906      -0.13211364       0.11352077
H        5.60879987       4.47796517       0.91097304        8       0.04698899       0.01803453       0.08182567
H        5.08289141       5.59673661       6.66077578        9       0.15867823       0.05038005      -0.01207843
H        1.55949307       6.06821853       8.30532298       10       0.04335723       0.20655775      -0.07480273
H        1.77275751       3.99037717       2.55444842       11      -0.40218607      -0.64339441      -0.17154950
H        5.48191700       3.99004748       3.31358698       12       0.00440586      -0.00778922      -0.02740832
H        5.26449014       6.07295509       9.06310926       13      -0.00190783       0.06240933       0.00998097
H        0.77253868       4.41089730       6.60923533       14      -0.03546410      -0.03755088       0.00600073
H        2.54848229       5.66287268       0.85964533       15      -0.01381396      -0.03409998      -0.14053179
H        6.26869252       5.64920272       5.00953376       16      -0.03157176       0.02823342      -0.00448337
H        4.47501839       4.41078204      10.76100389       17       0.05140731      -0.05651702      -0.12364037
H        6.35699879      -0.03150839       8.25468114       18      -0.01978195      -0.03638780       0.01429216
H        4.37554941      10.09737745       2.50308590       19      -0.00050177      -0.00563234       0.06543172
H        0.65485177      10.09197292       3.35978015       20       0.06379268       0.14894229      -0.01394238
H        2.64778051      -0.02513713       9.11455559       21      -0.03187191      -0.13981451      -0.03942864
H        5.75543713       2.08966973       1.10398448       22       1.26760268      -0.45433444       0.22612518
H        4.93886743       7.97690312       6.85243796       23      -0.39562011       0.20643607       0.03976867
H        1.23961642       7.97690790      10.51408359       24      -0.71271777       0.33849430      -0.07020255
H        2.08469147       2.08413228       4.76350192       25       0.10032442      -0.12885362      -0.02120443
H        6.93999556       1.93571495       2.23904487       26      -0.07257198      -0.16866520      -0.37438211
H        3.79881725       8.12517104       7.99051162       27      -0.02187448       0.16650972      -0.27876067
H        0.09300565       8.12359909       9.38070906       28      -0.06177589       0.17433043       0.18518850
H        3.22704261       1.93636585       3.62800103       29      -0.03543815      -0.14659040       0.23908666
C        0.23010465       2.66027081       9.52673259       30      -0.38266948      -0.28632832      -0.10167617
C        3.10885425       7.40878296       3.77560606       31      -0.39943799      -0.35264832       0.05463967
C        6.80216147       7.41097337       2.09210204       32       0.03481624      -0.16665564       0.05250528
C        3.88724287       2.65277356       7.84389248       33       0.99633253       1.03007424      -0.29475862
C        0.63211235       3.59895269      10.47547238       34      -0.09981841      -0.08005190      -0.20318994
C        2.69293658       6.46999432       4.72592136       35       0.06918193      -0.09559603      -0.50514102
C        6.41001083       6.46450806       1.14213568       36       0.03377186       0.16764443       0.28234577
C        4.33128783       3.59774003       6.89206334       37      -0.35134974      -0.34074065       0.62019491
C        1.10554712       4.82160203      10.00073654       38      -0.23544043      -0.25470859      -0.53686893
C        2.22605194       5.24234607       4.25063563       39      -0.30579573       0.01683947      -0.37089553
C        5.93342067       5.24611598       1.61510611       40      -0.07803627      -0.24210149       0.16781530
C        4.81177420       4.81688711       7.36729843       41      -0.23520115       0.01295039       0.19176674
C        1.16500482       5.11052256       8.62563850       42       0.03116594      -0.26007175       0.32581154
C        2.09830153       4.95508582       2.87759247       43       1.14334989       1.19681597       0.14374410
C        5.86719683       4.95800511       2.98994212       44      -0.14045563      -0.01647046      -0.19956771
C        4.87532729       5.10768001       8.74261511       45       0.13837391       0.01418476      -0.35816550
C        0.73832124       4.18573777       7.67206612       46       0.15786138       0.09047191       0.01454858
C        2.57043607       5.87828265       1.92002015       47      -0.40395668      -0.08579099       0.54981810
C        6.27806228       5.87975985       3.94760832       48       0.15375331       0.35138115      -0.12536943
C        4.45902104       4.18664103       9.69393144       49      -0.14139467      -0.21907648       0.17357631
C        0.28007544       2.96717571       8.14785314       50      -0.15412173      -0.20480774       0.20414901
C        3.03447058       7.10153202       2.39673600       51       0.12648916      -0.29215777       0.27238467
C        6.73731095       7.11233037       3.47155882       52      -0.14850235      -0.71009326      -0.23338619
C        3.97945236       2.96771462       9.22116995       53      -0.15147957       0.07890457      -0.35247609
C        6.81699814       0.93015974       8.46625868       54      -0.37122849       0.15594921      -0.37873328
C        3.91946659       9.13375249       2.71823560       55      -0.03891947      -0.23222490      -0.27233368
C        0.19971584       9.13335784       3.14552745       56       0.26549822      -0.07631755       0.54989713
C        3.11016970       0.92983708       8.89586252       57      -0.01781145       0.15192272       0.65474385
C        6.90976917       1.68888048       6.13006586       58       0.06386403      -0.13474783       0.26117212
C        3.80970378       8.37268301       0.38228918       59      -0.20863670       0.14144023       0.26260519
C        0.08499673       8.38087136       5.48610055       60       0.50609970       0.32618088      -0.24312443
C        3.22129369       1.68638161      11.23662001       61      -0.47993296      -0.35378903      -0.14910495
N        7.06186611       1.37089230       9.68618488       62       0.61226255       0.51703417       0.05758621
N        3.63145932       8.69270279       3.93565039       63       0.12353300       0.22870822       0.03350836
N       -0.05875422       8.69309815       1.93345498       64      -0.29655123      -0.01804057      -0.51252908
N        3.39582064       1.36676162       7.68445038       65      -0.27360356      -0.15577790      -0.28296036
N        7.13677097       1.84297446       7.49378917       66       0.11341741      -0.11200914       0.36390066
N        3.58376662       8.22107813       1.74848666       67       0.11479406       0.30381799       0.07489675
N       -0.12529942       8.22065487       4.11999222       68       0.01143711       0.48314610      -0.07652199
N        3.44457240       1.84495923       9.86995661       69      -0.20180485      -0.48061034      -0.07653981
N        0.25709276       2.26777967       5.17291420       70      -0.48066655      -0.15624142       0.13456285
N        3.07166287       7.79574925      10.91995089       71       0.04705355      -0.18781897      -0.11190733
N        6.76522202       7.80219500       6.44639521       72      -0.14701359      -0.21035536       0.02644008
N        3.95772857       2.26476942       0.69488568       73      -0.44001466      -0.03289368       0.32978725
N        7.07987695       1.88054642       4.02063733       74      -0.37017381      -0.45479119      -0.10696107
N        3.67150862       8.18280407       9.77262434       75      -0.22395760      -0.05113300      -0.42921522
N       -0.05932607       8.18341382       7.59895589       76       0.17325534       0.25418255       0.14151040
N        3.32912403       1.88352435       1.84812793       77       0.67158020       0.02545751       0.30406025
N        6.04363383       1.09586125       4.27772812       78      -0.08425700       0.19728923      -0.42229435
N        4.69139723       8.96350505      10.02747934       79       0.15006348       0.04186632      -0.06493795
N        0.96890225       8.96360043       7.34176911       80       0.37809268       0.03216639       0.18875901
N        2.32701913       1.09549347       1.58873126       81      -0.64596832       0.05056451       0.02817306
N        5.89235414       0.95466029       5.61154851       82       0.95937240       0.47651970      -0.25244856
N        4.80370746       9.10805126      11.36192150       83       0.19289488       0.19105984       0.03722489
N        1.11328090       9.10664799       6.00785446       84      -0.84600455      -0.25583154       0.21503627
N        2.18464457       0.96047614       0.25706368       85       0.97150946       0.23794761      -0.17361546
O        6.72944632       1.80760579       1.26926921       86      -1.00372398       0.39688748      -0.21134503
O        3.99385006       8.25230883       7.01984335       87       0.10644457       0.00436030      -0.18321970
O        0.28637528       8.26057478      10.34755856       88       0.51699859      -0.18612608       0.26500183
O        3.02153686       1.80949239       4.59686305       89       0.14365205       0.07506221       0.04272757
90
Lattice="7.4111485 0.0 0.0 -0.4798205474622734 10.177301543482061 0.0 2.192877066330859e-05 -2.6393486004865458e-05 11.501519669948813" Properties=species:S:1:pos:R:3:spacegroup_kinds:I:1:forces:R:3 spacegroup="P 1" unit_cell=conventional occupancy="_JSON {\"0\": {\"Cd\": 1}, \"1\": {\"Cd\": 1}, \"2\": {\"H\": 1}, \"3\": {\"H\": 1}, \"4\": {\"H\": 1}, \"5\": {\"H\": 1}, \"6\": {\"H\": 1}, \"7\": {\"H\": 1}, \"8\": {\"H\": 1}, \"9\": {\"H\": 1}, \"10\": {\"H\": 1}, \"11\": {\"H\": 1}, \"12\": {\"H\": 1}, \"13\": {\"H\": 1}, \"14\": {\"H\": 1}, \"15\": {\"H\": 1}, \"16\": {\"H\": 1}, \"17\": {\"H\": 1}, \"18\": {\"H\": 1}, \"19\": {\"H\": 1}, \"20\": {\"H\": 1}, \"21\": {\"H\": 1}, \"22\": {\"H\": 1}, \"23\": {\"H\": 1}, \"24\": {\"H\": 1}, \"25\": {\"H\": 1}, \"26\": {\"H\": 1}, \"27\": {\"H\": 1}, \"28\": {\"H\": 1}, \"29\": {\"H\": 1}, \"30\": {\"C\": 1}, \"31\": {\"C\": 1}, \"32\": {\"C\": 1}, \"33\": {\"C\": 1}, \"34\": {\"C\": 1}, \"35\": {\"C\": 1}, \"36\": {\"C\": 1}, \"37\": {\"C\": 1}, \"38\": {\"C\": 1}, \"39\": {\"C\": 1}, \"40\": {\"C\": 1}, \"41\": {\"C\": 1}, \"42\": {\"C\": 1}, \"43\": {\"C\": 1}, \"44\": {\"C\": 1}, \"45\": {\"C\": 1}, \"46\": {\"C\": 1}, \"47\": {\"C\": 1}, \"48\": {\"C\": 1}, \"49\": {\"C\": 1}, \"50\": {\"C\": 1}, \"51\": {\"C\": 1}, \"52\": {\"C\": 1}, \"53\": {\"C\": 1}, \"54\": {\"C\": 1}, \"55\": {\"C\": 1}, \"56\": {\"C\": 1}, \"57\": {\"C\": 1}, \"58\": {\"C\": 1}, \"59\": {\"C\": 1}, \"60\": {\"C\": 1}, \"61\": {\"C\": 1}, \"62\": {\"N\": 1}, \"63\": {\"N\": 1}, \"64\": {\"N\": 1}, \"65\": {\"N\": 1}, \"66\": {\"N\": 1}, \"67\": {\"N\": 1}, \"68\": {\"N\": 1}, \"69\": {\"N\": 1}, \"70\": {\"N\": 1}, \"71\": {\"N\": 1}, \"72\": {\"N\": 1}, \"73\": {\"N\": 1}, \"74\": {\"N\": 1}, \"75\": {\"N\": 1}, \"76\": {\"N\": 1}, \"77\": {\"N\": 1}, \"78\": {\"N\": 1}, \"79\": {\"N\": 1}, \"80\": {\"N\": 1}, \"81\": {\"N\": 1}, \"82\": {\"N\": 1}, \"83\": {\"N\": 1}, \"84\": {\"N\": 1}, \"85\": {\"N\": 1}, \"86\": {\"O\": 1}, \"87\": {\"O\": 1}, \"88\": {\"O\": 1}, \"89\": {\"O\": 1}}" energy=-623.4097290039062 free_energy=-623.4097290039062 stress="0.009823668748140335 -0.002656331053003669 -0.003756084945052862 -0.002656331053003669 0.001841760240495205 -0.003995493985712528 -0.003756084945052862 -0.003995493985712528 -0.005790147464722395" pbc="T T T"
Cd      -0.43412560      10.12027776       0.05920940        0       0.08215025      -0.19901201       0.14545861
Cd       3.76330381      -0.05872355       5.80774404        1      -0.06883209      -0.24758543       0.17140912
H        0.57618338       3.35203981      11.56845284        2      -0.01674692       0.07670962       0.01359437
H        2.75589890       6.65071491       5.81598297        3       0.11333145       0.03792751       0.11107969
H        6.51274019       6.65190297       0.10821209        4       0.06642632       0.01331668      -0.23726109
H        4.27953314       3.35021887       5.86107038        5      -0.00002113       0.05094394      -0.17509601
H        1.38450605       5.55340043      10.72945787        6       0.30086470       0.54945123       0.36823815
H        1.93103738       4.45147917       4.98432476        7      -0.01453710      -0.04599109       0.06975140
H        5.63488149       4.44831980       0.93892578        8       0.03513052       0.01709414       0.09440911
H        5.07892006       5.57911278       6.68607333        9       0.28482053       0.24324746      -0.13783407
H        1.58706081       6.03963199       8.33415730       10      -0.13646853      -0.02581902       0.01956467
H        1.75797025       3.96122711       2.58297341       11      -0.24499035      -0.33374238      -0.07172038
H        5.50191212       3.96718387       3.34182073       12      -0.02022170      -0.14792395       0.01234519
H        5.25916725       6.04425763       9.09080713       13       0.19323224       0.42709672       0.16027679
H        0.80110639       4.38104637       6.63599690       14      -0.03195308      -0.04741517       0.09102431
H        2.55149982       5.63347374       0.88730785       15       0.00203598       0.00048641      -0.08256796
H        6.28976428       5.61999797       5.03912551       16      -0.00244530       0.05129991      -0.07355230
H        4.50342548       4.38169511      10.79085182       17       0.04571278      -0.08557761      -0.22351447
H        6.37920867      -0.06019405       8.28258354       18      -0.03395882      -0.05450696      -0.05106815
H        4.39005062      10.07064054       2.53154236       19      -0.17254294      -0.23886271       0.12176950
H        0.63325794      10.06238858       3.38761387       20       0.35466334       0.64550227       0.12176708