74
Lattice="6.98445816 0.0 0.0 -2.413470718785405 8.890927970709763 0.0 -2.6103836427783366e-05 -1.8907781285996704e-05 12.107501469957096" Properties=species:S:1:pos:R:3:spacegroup_kinds:I:1:forces:R:3 spacegroup="P 1" unit_cell=conventional occupancy="_JSON {\"0\": {\"Zn\": 1}, \"1\": {\"Zn\": 1}, \"2\": {\"H\": 1}, \"3\": {\"H\": 1}, \"4\": {\"H\": 1}, \"5\": {\"H\": 1}, \"6\": {\"H\": 1}, \"7\": {\"H\": 1}, \"8\": {\"H\": 1}, \"9\": {\"H\": 1}, \"10\": {\"H\": 1}, \"11\": {\"H\": 1}, \"12\": {\"H\": 1}, \"13\": {\"H\": 1}, \"14\": {\"H\": 1}, \"15\": {\"H\": 1}, \"16\": {\"H\": 1}, \"17\": {\"H\": 1}, \"18\": {\"H\": 1}, \"19\": {\"H\": 1}, \"20\": {\"H\": 1}, \"21\": {\"H\": 1}, \"22\": {\"H\": 1}, \"23\": {\"H\": 1}, \"24\": {\"H\": 1}, \"25\": {\"H\": 1}, \"26\": {\"C\": 1}, \"27\": {\"C\": 1}, \"28\": {\"C\": 1}, \"29\": {\"C\": 1}, \"30\": {\"C\": 1}, \"31\": {\"C\": 1}, \"32\": {\"C\": 1}, \"33\": {\"C\": 1}, \"34\": {\"C\": 1}, \"35\": {\"C\": 1}, \"36\": {\"C\": 1}, \"37\": {\"C\": 1}, \"38\": {\"C\": 1}, \"39\": {\"C\": 1}, \"40\": {\"C\": 1}, \"41\": {\"C\": 1}, \"42\": {\"C\": 1}, \"43\": {\"C\": 1}, \"44\": {\"C\": 1}, \"45\": {\"C\": 1}, \"46\": {\"C\": 1}, \"47\": {\"C\": 1}, \"48\": {\"C\": 1}, \"49\": {\"C\": 1}, \"50\": {\"C\": 1}, \"51\": {\"C\": 1}, \"52\": {\"C\": 1}, \"53\": {\"C\": 1}, \"54\": {\"N\": 1}, \"55\": {\"N\": 1}, \"56\": {\"N\": 1}, \"57\": {\"N\": 1}, \"58\": {\"N\": 1}, \"59\": {\"N\": 1}, \"60\": {\"N\": 1}, \"61\": {\"N\": 1}, \"62\": {\"N\": 1}, \"63\": {\"N\": 1}, \"64\": {\"N\": 1}, \"65\": {\"N\": 1}, \"66\": {\"O\": 1}, \"67\": {\"O\": 1}, \"68\": {\"O\": 1}, \"69\": {\"O\": 1}, \"70\": {\"O\": 1}, \"71\": {\"O\": 1}, \"72\": {\"O\": 1}, \"73\": {\"O\": 1}}" energy=-502.6329650878906 free_energy=-502.6329650878906 stress="-0.005180979613214731 0.004037272185087204 0.0013333933893591166 0.004037272185087204 0.0015595814911648631 0.00016630197933409363 0.0013333933893591166 0.00016630197933409363 -0.010016635060310364" pbc="T T T"
Zn      -1.08702753       6.57197841       3.64627108        0       0.19885078       0.20505445       0.15818834
Zn       5.67439054       2.28855617       9.72530321        1      -0.16157126       0.07341149      -0.40369564
H        4.64517963       2.02465803       2.89837752        2       0.21050709      -0.13390788       0.29274648
H       -0.08278659       6.86472595       8.96637196        3       0.30066752       0.09265649      -1.49164379
H        5.16076595       2.99984035       4.24580347        4       0.14622332       0.66131240       0.38316843
H       -0.59148973       5.86965059      10.29904854        5       0.00712845       0.51267028      -0.08452784
H        2.83582453       2.45020037       4.48102356        6      -0.10613619      -0.25028437       0.14134750
H        1.75989317       6.47055433      10.53693498        7       0.26177925      -0.29589120       0.24994437
H        3.12172681       0.71827485       4.28881364        8      -0.54652691      -1.19648886      -0.61387306
H        1.45716016       8.21271446      10.31684090        9      -0.42097506      -0.93203276       0.56234711
H        3.21085913       8.37908004       2.78870907       10       0.12394261      -0.04604837       0.17899537
H        1.39350037       0.56688558       8.86422315       11      -0.21761797      -0.32834303       0.17239311
H        0.03668631       2.07089675       5.88953152       12       0.05742092      -0.79599488      -0.40782997
H        4.57135836       6.81625089      11.90670566       13       0.06117962       0.29927075      -0.18568069
H        4.88899790       3.24171650       6.71077870       14      -0.08603105       0.12466623      -0.09323294
H       -0.28738996       5.60976363       0.60517841       15       0.26889527       1.09586334       0.46642271
H        0.44107169       8.39395906       6.43457449       16       0.10584248      -0.05333026       0.10023421
H        4.12949090       0.45439277       0.37572904       17      -0.01507177       0.07686084       0.27352858
H        2.87043070       4.05479247       9.56646846       18      -0.02023989      -0.76446009       0.95874214
H        1.70556300       4.84631658       3.54041493       19       0.25819093       0.22938983       0.23689172
H        4.70198696       5.55983963       9.00634085       20       0.29984662       0.03701011       0.31813073
H       -0.14414503       3.33699736       2.96324449       21      -0.45600379       0.10638196       0.37292379
H        4.56349874       6.98376360       6.93434629       22      -0.74086279      -0.64638335       0.38587523
H        0.03224525       1.87709380       0.91627345       23      -0.01487951      -0.10520305      -0.05180574
H        2.51874514       6.90810014       5.55988053       24      -0.08141502      -0.15935515      -0.07652391
H        2.05911561       1.98577846      11.57427433       25       0.02602389       0.33197585       0.38210362
C        4.85475422       2.00012487       3.99125245       26      -1.41909420      -0.40433583      -1.05424881
C       -0.27371019       6.89964005      10.00322613       27       0.21583030      -0.54611576       1.60411429
C        3.53319334       1.61316639       4.66916139       28       1.30123591       1.94268465       0.05393764
C        1.02570999       7.24586814      10.74367336       29      -0.65780103       1.35956120      -0.67257261
C        3.76969743       8.75060042       3.64583380       30      -1.14717352       1.66768956       0.12451214
C        0.79958490       0.12471704       9.67101469       31       1.20865870       0.06156018      -0.75411963
C       -0.06890945       1.17588308       5.23942708       32      -0.07438160       0.79393655       0.04716526
C        4.67702537       7.69515653      11.26167230       33      -0.74767137       0.19975129       0.20687388
C        4.40502009       2.30845880       6.97353269       34      -0.42757988      -0.43831247      -2.00794983
C        0.11985039       6.61209003       0.91929189       35      -0.27760077      -1.76890039      -1.72310197
C        3.41293869       0.33914468       6.84653034       36       0.82110238       1.22525001       0.70508313
C        1.16716552       8.52967476       0.84148942       37       0.03406608      -0.56089783      -2.25270414
C        1.54753482       5.38975794       6.76800216       38      -0.64016914      -0.04984940      -0.57747465
C        3.04842480       3.52537975       0.68564746       39      -0.61820590      -1.07636237      -0.25850105
C        1.65850854       4.57025446       7.89101469       40      -0.24634555      -0.73638344       0.43398488
C        2.94253731       4.31707493       1.83673044       41      -0.25560385      -0.05014473      -0.21054350
C        2.77407511       4.67035511       8.71135276       42       0.50412786       0.85445017      -0.44579720
C        1.81469058       4.20589100       2.67280969       43      -0.89614797      -0.07582785      -0.25362873
C        3.81043290       5.56139024       8.40780283       44      -0.40090075      -0.74652004      -0.12594447
C        0.72839856       3.38711087       2.34938400       45       1.61616659      -1.17772818      -1.88099217
C        3.72581096       6.29981354       7.24984459       46       0.66834342       1.55182290      -1.22966182
C        0.85346930       2.53918239       1.17904835       47      -0.31687447       1.13236547       1.10607862
C        2.58383818       6.25914383       6.42998963       48       0.69258380       0.11672448       0.75836408
C        1.97951997       2.61868999       0.36684729       49       0.45961809       0.26270509       0.34614083
C        0.33223274       5.32434168       5.87976886       50       0.63814914       1.44668722      -0.38647306
C        4.26477385       3.52639508      11.88139254       51      -1.24851859       1.51235187       1.30537903
C        0.66450009       3.47138932       8.27752288       52      -0.13774219       2.18331742       0.03107358
C        3.93597576       5.37559673       2.22252733       53      -1.43157828       0.95021003      -1.30756140
N       -2.18507848       8.18862716       4.21134948       54       0.59658802      -0.26115295       0.09946682
N        6.77556047       0.70796868      10.23169048       55      -1.49763227      -0.26182222       1.50205755
N        0.72236102       0.12306086       5.21093853       56      -0.41199112       0.24864095       0.22706914
N        3.87823773       8.73890788      11.28427425       57       0.44859970       0.60727185      -0.69440591
N        5.93374319       1.09602815       4.26481742       58       1.35869586      -2.25013494      -0.18735872
N       -1.38027637       7.82962828      10.26974016       59       0.86963105      -0.72756869       0.00146268
N        4.46616625       1.72693882       8.12720346       60       0.60693932       0.06424072       1.60055375
N        0.06844161       7.16399010       2.08562358       61      -0.20248105       0.73156565       1.67132580
N        3.88084958       0.50409520       8.09654226       62      -0.96079749      -1.05408800      -0.90871990
N        0.71546122       8.40251811       2.02851120       63      -0.52752280      -0.04690550       2.25324202
N        3.74079939       1.45401217       6.09297812       64      -0.14483252      -0.04167360       1.46693861
N        0.79598526       7.42616641       0.08358033       65       1.04249489       0.37283292      -1.02867913
O        0.18999064       6.41775732       5.14224628       66      -0.23694351      -0.79959494       0.21257481
O        4.36798729       2.49588046      11.15094792       67       0.40323958      -1.18144512      -0.81401217
O       -0.40532629       4.33403416       5.86323645       68      -0.56228828      -0.49896827      -0.13638982
O        4.98266766       4.54877718      11.88531293       69       0.63171923      -0.00141895      -0.24495485
O        0.82922074       2.34176676       7.83397136       70       0.24281421      -1.27198052      -0.31241298
O        3.72621822       6.55196416       1.79089171       71       0.38373473      -1.00795221       0.41210514
O       -0.27615051       3.86079185       9.08899843       72       0.09271026      -0.41527948       0.09016186
O        4.83784006       5.00835681       3.02884077       73       1.19166028       0.02694196       0.98337281
74
Lattice="6.98445816 0.0 0.0 -2.413470718785405 8.890927970709763 0.0 -2.6103836427783366e-05 -1.8907781285996704e-05 12.107501469957096" Properties=species:S:1:pos:R:3:spacegroup_kinds:I:1:forces:R:3 spacegroup="P 1" unit_cell=conventional occupancy="_JSON {\"0\": {\"Zn\": 1}, \"1\": {\"Zn\": 1}, \"2\": {\"H\": 1}, \"3\": {\"H\": 1}, \"4\": {\"H\": 1}, \"5\": {\"H\": 1}, \"6\": {\"H\": 1}, \"7\": {\"H\": 1}, \"8\": {\"H\": 1}, \"9\": {\"H\": 1}, \"10\": {\"H\": 1}, \"11\": {\"H\": 1}, \"12\": {\"H\": 1}, \"13\": {\"H\": 1}, \"14\": {\"H\": 1}, \"15\": {\"H\": 1}, \"16\": {\"H\": 1}, \"17\": {\"H\": 1}, \"18\": {\"H\": 1}, \"19\": {\"H\": 1}, \"20\": {\"H\": 1}, \"21\": {\"H\": 1}, \"22\": {\"H\": 1}, \"23\": {\"H\": 1}, \"24\": {\"H\": 1}, \"25\": {\"H\": 1}, \"26\": {\"C\": 1}, \"27\": {\"C\": 1}, \"28\": {\"C\": 1}, \"29\": {\"C\": 1}, \"30\": {\"C\": 1}, \"31\": {\"C\": 1}, \"32\": {\"C\": 1}, \"33\": {\"C\": 1}, \"34\": {\"C\": 1}, \"35\": {\"C\": 1}, \"36\": {\"C\": 1}, \"37\": {\"C\": 1}, \"38\": {\"C\": 1}, \"39\": {\"C\": 1}, \"40\": {\"C\": 1}, \"41\": {\"C\": 1}, \"42\": {\"C\": 1}, \"43\": {\"C\": 1}, \"44\": {\"C\": 1}, \"45\": {\"C\": 1}, \"46\": {\"C\": 1}, \"47\": {\"C\": 1}, \"48\": {\"C\": 1}, \"49\": {\"C\": 1}, \"50\": {\"C\": 1}, \"51\": {\"C\": 1}, \"52\": {\"C\": 1}, \"53\": {\"C\": 1}, \"54\": {\"N\": 1}, \"55\": {\"N\": 1}, \"56\": {\"N\": 1}, \"57\": {\"N\": 1}, \"58\": {\"N\": 1}, \"59\": {\"N\": 1}, \"60\": {\"N\": 1}, \"61\": {\"N\": 1}, \"62\": {\"N\": 1}, \"63\": {\"N\": 1}, \"64\": {\"N\": 1}, \"65\": {\"N\": 1}, \"66\": {\"O\": 1}, \"67\": {\"O\": 1}, \"68\": {\"O\": 1}, \"69\": {\"O\": 1}, \"70\": {\"O\": 1}, \"71\": {\"O\": 1}, \"72\": {\"O\": 1}, \"73\": {\"O\": 1}}" energy=-501.6037902832031 free_energy=-501.6037902832031 stress="-0.006414931733161211 0.0017011367017403245 0.0023957504890859127 0.0017011367017403245 -0.014500555582344532 0.003373750252649188 0.0023957504890859127 0.003373750252649188 -0.010573606938123703" pbc="T T T"
Zn      -1.06278049       6.59985969       3.64642920        0       0.17698257      -0.31809443       0.14921369
Zn       5.68100013       2.30741232       9.71379957        1      -0.15744136      -0.07239182      -0.02661790
H        4.65694453       2.05131550       2.87718020        2       0.22316898      -0.19359478       0.47170055
H       -0.05483690       6.87623567       8.94550565        3      -0.11486352      -0.04024945      -0.93734264
H        5.16528154       2.98059917       4.25807157        4       0.25860643       1.23260677       0.49765742
H       -0.57828883       5.88767786      10.31511925        5      -0.32365924      -0.44148579      -0.06050346
H        2.83778231       2.44280735       4.48580153        6      -0.62904441       0.16376932      -0.09282586
H        1.78862572       6.47060632      10.50876185        7       0.34088913      -0.41953146       0.23159248
H        3.14977376       0.71959943       4.29599543        8      -1.07605934      -2.12092686      -1.00029087
H        1.43758844       8.22117437      10.30483775        9      -0.26030260      -0.95720017       0.54325348
H        3.24048564       8.36397098       2.76802395       10       0.14920817       0.37930956       0.55235374
H        1.41796366       0.55013536       8.86840096       11      -0.82421815      -0.71414882       0.90097511
H        0.01400093       2.09701326       5.89703329       12       0.11921983      -1.84446478      -1.14116383
H        4.56143924       6.81502564      11.88847782       13      -0.19086207      -0.14101934       0.35859799
H        4.90071612       3.21737734       6.73829189       14       0.45911124       1.15596914      -0.32576984
H       -0.29167458       5.62778019       0.59468084       15       0.41746366       1.36219501       0.66012388
H        0.44469844       8.40598759       6.45826775       16       0.08730376      -0.13297805       0.08622384
H        4.15711099       0.45031325       0.36001178       17      -0.47453260      -0.44912845       0.42352021
H        2.89141105       4.06827613       9.56805381       18      -0.18454941      -1.13053286       1.35767317
H        1.69196815       4.81834881       3.56676093       19       0.34213603      -0.10565433      -0.44821307
H        4.69921648       5.58833291       9.01537020       20       0.37917221      -0.13383985       0.45584679
H       -0.12959179       3.33118512       2.98626336       21      -0.03493540       0.21505140      -0.05782137
H        4.58111419       7.00168287       6.95426161       22      -0.90872520      -0.71323335       0.41872990
H        0.05583572       1.85908215       0.90718155       23      -0.52517706      -0.56004947      -0.17583247
H        2.53363330       6.90405072       5.53340925       24       0.01362880      -0.83284193       0.90081465
H        2.03247686       1.96537416      11.57987499       25       0.26012495       0.74512988       0.62870556
C        4.84530085       2.01097450       3.97700921       26      -0.93693841      -1.45325828      -0.83670813
C       -0.29820613       6.88116458       9.98817851       27       1.59116530       0.45672697       1.19992328
C        3.51121482       1.61259619       4.65789183       28       2.67104197       2.55693126       0.69007349
C        1.05258144       7.23355659      10.71643314       29      -2.08818340       1.56644487       0.09174523
C        3.77291111       8.77988689       3.63967832       30      -0.15094644      -0.75120777      -0.45249981
C        0.79160090       0.10223896       9.69749238       31       2.69667053       0.58483809      -2.73794985
C       -0.05965724       1.15689991       5.21644479       32       0.18781085       2.79020214       1.64702463
C        4.64893192       7.70273113      11.28784433       33       0.59432113      -0.21428442      -0.89914906
C        4.43089417       2.31253657       6.99943104       34      -1.36298025      -1.54645014      -2.29551196
C        0.13110244       6.63790323       0.92869580       35      -1.33553600      -4.84365749      -3.11863279
C        3.42997774       0.34490085       6.85986045       36       0.61450148       1.61652398       0.46936762
C        1.15592758       8.52051512       0.82026687       37       0.56340545       0.47166318      -1.67181814
C        1.52492677       5.36249961       6.78127872       38       1.48458052       1.88008308      -1.59886980
C        3.02215329       3.55180821       0.68201714       39       0.01853219      -0.58379567      -0.10544075
C        1.67792873       4.58684803       7.87713852       40      -1.38893044      -2.44527912       2.00092030
C        2.94053561       4.34454567       1.86500350       41       0.04109270      -0.99827158      -2.01970100
C        2.76521335       4.67685659       8.72813631       42       1.25980115       1.30660510      -1.01317596
C        1.81505148       4.21358031       2.64429920       43      -1.80880737       0.52316505       1.58090281
C        3.81535673       5.54378956       8.41436337       44      -0.53135747      -0.09432153      -0.25920358
C        0.72397406       3.41158870       2.32156177       45       0.98502988      -2.09541464      -1.78152156
C        3.73123779       6.32158457       7.26670192       46       0.82244122       0.93887341      -0.95351863
C        0.85612092       2.51645211       1.16271861       47      -0.31746763       2.39417171       2.11747742
C        2.60956947       6.24470017       6.44610603       48      -0.62965935       0.53697753      -0.42773104
C        1.97248369       2.63766277       0.36569541       49       0.61754453      -0.33511931      -0.38088238
C        0.35055947       5.31926169       5.89295178       50       0.00857279       1.29720068      -0.71254426
C        4.25510317       3.53983511      11.85654552       51      -2.04283404       2.29683685       2.96664023
C        0.65255782       3.47763111       8.27072079       52       0.18072492       2.11001182      -0.23464413
C        3.91255083       5.40123440       2.22950532       53       0.69875157      -1.83905935       0.73569000
N       -2.17090663       8.16270114       4.20106862       54      -0.32405338       1.28797901      -0.04124919
N        6.78619288       0.70090337      10.24109781       55      -1.96252739       0.54355353       1.69644594
N        0.73768284       0.13265228       5.18910180       56       0.17936495      -0.88192350       0.28346142
N        3.90361047       8.75955756      11.28960936       57      -0.78617865       0.94545233       0.04856427
N        5.95857395       1.07830013       4.26566639       58      -0.64813948      -0.83385205      -0.98132110
N       -1.40257850       7.80519803      10.26239469       59       0.62758994      -0.92065459       0.72912198
N        4.49001203       1.72317711       8.15276604       60       0.44386083       0.26369405       0.87993836
N        0.08645758       7.14001275       2.07527382       61      -0.28464186       2.51792550       3.95174360
N        3.89352536       0.51293073       8.10980388       62      -0.99455845      -1.41625714      -0.90162241
N        0.71172496       8.42547823       2.02174628       63      -0.39046502      -0.61624748       1.75423837
N        3.72478218       1.47395631       6.09196106       64       0.53627509      -0.22301799       2.53827524
N        0.78801082       7.40800557       0.09447901       65       2.27790523       1.52424145      -3.13743782
O        0.19893919       6.40123154       5.16742810       66      -0.04873163       0.08255997      -0.17175198
O        4.36898885       2.51980925      11.17540935       67       0.64154851      -3.14833331      -2.33403349
O       -0.40366249       4.34958401       5.83860006       68      -0.83691764      -1.29570198       0.07123470
O        4.98846785       4.53335886      11.87975409       69       1.18348658       1.17523408      -0.24963197
O        0.82758364       2.34404279       7.81963064       70       0.02477711      -0.69787335       0.12127379
O        3.73117317       6.53298479       1.81834573       71      -0.29697353       2.00249076      -0.76714408
O       -0.30437186       3.88647174       9.06258291       72       0.45121402      -0.69618154      -0.13179022
O        4.85773586       5.01700658       3.03173195       73       0.24217051       0.32710865       0.27082011
74
Lattice="6.98445816 0.0 0.0 -2.413470718785405 8.890927970709763 0.0 -2.6103836427783366e-05 -1.8907781285996704e-05 12.107501469957096" Properties=species:S:1:pos:R:3:spacegroup_kinds:I:1:forces:R:3 spacegroup="P 1" unit_cell=conventional occupancy="_JSON {\"0\": {\"Zn\": 1}, \"1\": {\"Zn\": 1}, \"2\": {\"H\": 1}, \"3\": {\"H\": 1}, \"4\": {\"H\": 1}, \"5\": {\"H\": 1}, \"6\": {\"H\": 1}, \"7\": {\"H\": 1}, \"8\": {\"H\": 1}, \"9\": {\"H\": 1}, \"10\": {\"H\": 1}, \"11\": {\"H\": 1}, \"12\": {\"H\": 1}, \"13\": {\"H\": 1}, \"14\": {\"H\": 1}, \"15\": {\"H\": 1}, \"16\": {\"H\": 1}, \"17\": {\"H\": 1}, \"18\": {\"H\": 1}, \"19\": {\"H\": 1}, \"20\": {\"H\": 1}, \"21\": {\"H\": 1}, \"22\": {\"H\": 1}, \"23\": {\"H\": 1}, \"24\": {\"H\": 1}, \"25\": {\"H\": 1}, \"26\": {\"C\": 1}, \"27\": {\"C\": 1}, \"28\": {\"C\": 1}, \"29\": {\"C\": 1}, \"30\": {\"C\": 1}, \"31\": {\"C\": 1}, \"32\": {\"C\": 1}, \"33\": {\"C\": 1}, \"34\": {\"C\": 1}, \"35\": {\"C\": 1}, \"36\": {\"C\": 1}, \"37\": {\"C\": 1}, \"38\": {\"C\": 1}, \"39\": {\"C\": 1}, \"40\": {\"C\": 1}, \"41\": {\"C\": 1}, \"42\": {\"C\": 1}, \"43\": {\"C\": 1}, \"44\": {\"C\": 1}, \"45\": {\"C\": 1}, \"46\": {\"C\": 1}, \"47\": {\"C\": 1}, \"48\": {\"C\": 1}, \"49\": {\"C\": 1}, \"50\": {\"C\": 1}, \"51\": {\"C\": 1}, \"52\": {\"C\": 1}, \"53\": {\"C\": 1}, \"54\": {\"N\": 1}, \"55\": {\"N\": 1}, \"56\": {\"N\": 1}, \"57\": {\"N\": 1}, \"58\": {\"N\": 1}, \"59\": {\"N\": 1}, \"60\": {\"N\": 1}, \"61\": {\"N\": 1}, \"62\": {\"N\": 1}, \"63\": {\"N\": 1}, \"64\": {\"N\": 1}, \"65\": {\"N\": 1}, \"66\": {\"O\": 1}, \"67\": {\"O\": 1}, \"68\": {\"O\": 1}, \"69\": {\"O\": 1}, \"70\": {\"O\": 1}, \"71\": {\"O\": 1}, \"72\": {\"O\": 1}, \"73\": {\"O\": 1}}" energy=-500.40936279296875 free_energy=-500.40936279296875 stress="-0.0047677564434707165 -0.0033410752657800913 0.001355443848297 -0.0033410752657800913 -0.02424628473818302 0.002842055168002844 0.001355443848297 0.002842055168002844 -0.013018465600907803" pbc="T T T"
Zn      -1.06352966       6.62629802       3.66096191        0       0.16593407      -0.71196520       0.11521391
Zn       5.65465360       2.33437690       9.73962545        1       0.39305025      -0.26737183      -0.41331452
H        4.63683456       2.02514647       2.88994750        2       0.45750311      -0.21427153       0.45443889
H       -0.06763422       6.89816207       8.92507776        3      -0.09294662      -0.04827325      -0.21123134
H        5.18722505       2.98140442       4.24548748        4      -0.01282612       0.99695945       0.40998131
H       -0.60559879       5.88050611      10.33199880        5       0.29788586       0.47113168      -0.44711179
H        2.85115026       2.44276297       4.49201846        6      -0.01446983      -0.45080811       0.04797843
H        1.81756284       6.44462905      10.48561575        7      -0.92741168       0.93797922       0.62988210
H        3.12686532       0.74478637       4.32470698        8      -1.69953287      -3.75769091      -1.60478282
H        1.43194797       8.21592867      10.30994227        9      -0.11821645      -0.50553071       0.48539907
H        3.22609786       8.34818243       2.74524805       10       0.62816077       0.63405895       1.37146235
H        1.42026375       0.55187177       8.86599383       11      -1.24326086      -0.99554408       1.33135021
H        0.03753625       2.11970597       5.91580169       12      -0.04625639      -2.51423526      -1.67281985
H        4.58600529       6.83957082      11.91791081       13      -0.18177633      -0.27819121       0.30390817
H        4.88243852       3.22562844       6.76262584       14       1.09576893       2.33101940      -0.72259998
H       -0.29250972       5.65674134       0.58166260       15       0.39971346       1.35697794       0.91767049
H        0.46574997       8.42648241       6.45795441       16      -0.15300468      -0.33350888      -0.06632330
H        4.15008407       0.44431616       0.36589866       17      -0.38463187      -0.38793719       0.40193799
H        2.91244077       4.05908121       9.58514568       18      -0.23353547      -1.22086573       1.42183781
H        1.70583539       4.79318358       3.58501034       19       0.25893882       0.57554340       0.37504795
H        4.67746836       5.56169231       9.02776249       20       1.18973374       0.01336145       0.72878623
H       -0.10880111       3.31999431       2.97536583       21      -1.50624108       0.07556672       0.98153126
H        4.56584959       6.98727060       6.94971272       22      -0.26045173      -0.23897868       0.38381901
H        0.06445166       1.86390178       0.90857992       23       0.12965041      -0.00620727       0.09360885
H        2.56041615       6.88458727       5.55527549       24      -0.12584235       0.30481052      -0.64499283
H        2.03917050       1.94190622      11.58749526       25       0.28603864       0.86442697       0.94656801
C        4.86454754       1.99719866       3.98494143       26      -1.16510272      -0.96083981      -0.82641906
C       -0.27381434       6.89886184       9.99568555       27       0.26436472      -0.73553395       0.98084581
C        3.53861273       1.58319303       4.66218031       28       2.70746255       5.17568207       1.45153546
C        1.03757397       7.25550842      10.73281269       29      -0.30462465      -0.40151545      -0.71440250
C        3.76993460       8.75181550       3.65565177       30      -0.66247857       0.40785334      -0.88649499
C        0.77120120       0.08342674       9.70207518       31       3.26240039       0.91362560      -3.20955181
C       -0.06476507       1.14476079       5.20103963       32       1.49376082       4.55730438       3.69384551
C        4.66057229       7.69122222      11.27123720       33      -1.08689582       0.63848984       0.82618213
C        4.45439588       2.32511852       6.97955326       34      -1.75473809      -3.99847436       0.07254305
C        0.13380206       6.65824427       0.94857067       35      -1.34162879      -5.69044876      -4.43276501
C        3.42938583       0.36890022       6.85724333       36       0.81612456       1.17482483       1.52310443
C        1.16615500       8.50191803       0.81709098       37       0.76940066       1.06757879      -1.50230157
C        1.54109773       5.35310832       6.77322968       38       1.80706716       2.68338609      -2.28132510
C        3.01627168       3.53101858       0.70367285       39       1.28038406      -0.57733274      -1.14764524
C        1.68339956       4.60474614       7.87535598       40      -1.12831330      -3.43982029       2.74102879
C        2.94961981       4.33736717       1.83730180       41      -1.41712117      -0.52219194       0.24372002
C        2.76348748       4.66442283       8.75092320       42       1.71507692       2.34021354      -2.22772384
C        1.80299353       4.23646968       2.67041538       43      -1.08656216      -0.73877597      -0.72231984
C        3.84161656       5.54014795       8.39333937       44      -2.14588022      -1.29407823       0.83662760
C        0.69607734       3.42213217       2.32682487       45       3.55228448      -1.10314500      -2.26378751
C        3.74209906       6.33174341       7.28840944       46      -0.31475365       1.02434218      -2.46881247
C        0.87916260       2.53899318       1.18720097       47      -1.40417910       1.13022745       1.24854481
C        2.61636261       6.26824578       6.42287083       48      -0.17145503      -1.25466943       2.24662971
C        2.00188782       2.61480828       0.38783394       49      -0.23743054      -0.59522367      -0.47120371
C        0.37422615       5.30025723       5.88826689       50      -1.26588464       1.16268086      -1.20456374
C        4.28465291       3.53650043      11.85457286       51      -4.24136543       0.44246429       3.50164223
C        0.64847368       3.46602181       8.24704794       52       0.48822528       2.27085567      -0.08784074
C        3.90382950       5.40829017       2.20777777       53       2.40127134      -5.42491674       2.75219321
N       -2.15180329       8.18787000       4.21101073       54      -0.61289686       0.16598053      -0.75806439
N        6.78057689       0.67124244      10.26814126       55      -2.40392876       1.96536779       1.13622558
N        0.74639386       0.13539227       5.17293718       56       0.65839505      -0.72120249       0.83798945
N        3.89564553       8.78500714      11.31379788       57       0.38591602      -0.97688043      -0.12140103
N        5.98561889       1.10687180       4.28416625       58      -1.77756059      -2.72209573      -2.85650730
N       -1.41552772       7.79263533      10.28488029       59       1.52036095      -0.68345577      -0.33897737
N        4.51692983       1.69792073       8.15950067       60       0.42429352       1.83893108      -0.26227456
N        0.10269442       7.15543289       2.09093533       61      -0.62036169       2.05389881       3.87249541