78
Lattice="9.4842156 0.0 0.0 -3.841838051378691 10.195780670824357 0.0 -2.0428054750101867 -3.3638299388917865 9.663116992110893" Properties=species:S:1:pos:R:3:spacegroup_kinds:I:1:forces:R:3 spacegroup="P 1" unit_cell=conventional occupancy="_JSON {\"0\": {\"Cd\": 1}, \"1\": {\"Cd\": 1}, \"2\": {\"Cd\": 1}, \"3\": {\"Cd\": 1}, \"4\": {\"H\": 1}, \"5\": {\"H\": 1}, \"6\": {\"H\": 1}, \"7\": {\"H\": 1}, \"8\": {\"H\": 1}, \"9\": {\"H\": 1}, \"10\": {\"H\": 1}, \"11\": {\"H\": 1}, \"12\": {\"H\": 1}, \"13\": {\"H\": 1}, \"14\": {\"H\": 1}, \"15\": {\"H\": 1}, \"16\": {\"H\": 1}, \"17\": {\"H\": 1}, \"18\": {\"H\": 1}, \"19\": {\"H\": 1}, \"20\": {\"H\": 1}, \"21\": {\"H\": 1}, \"22\": {\"H\": 1}, \"23\": {\"H\": 1}, \"24\": {\"H\": 1}, \"25\": {\"H\": 1}, \"26\": {\"H\": 1}, \"27\": {\"H\": 1}, \"28\": {\"H\": 1}, \"29\": {\"H\": 1}, \"30\": {\"H\": 1}, \"31\": {\"H\": 1}, \"32\": {\"H\": 1}, \"33\": {\"H\": 1}, \"34\": {\"H\": 1}, \"35\": {\"H\": 1}, \"36\": {\"C\": 1}, \"37\": {\"C\": 1}, \"38\": {\"C\": 1}, \"39\": {\"C\": 1}, \"40\": {\"C\": 1}, \"41\": {\"C\": 1}, \"42\": {\"C\": 1}, \"43\": {\"C\": 1}, \"44\": {\"C\": 1}, \"45\": {\"C\": 1}, \"46\": {\"C\": 1}, \"47\": {\"C\": 1}, \"48\": {\"C\": 1}, \"49\": {\"C\": 1}, \"50\": {\"C\": 1}, \"51\": {\"C\": 1}, \"52\": {\"C\": 1}, \"53\": {\"C\": 1}, \"54\": {\"C\": 1}, \"55\": {\"C\": 1}, \"56\": {\"C\": 1}, \"57\": {\"C\": 1}, \"58\": {\"C\": 1}, \"59\": {\"C\": 1}, \"60\": {\"N\": 1}, \"61\": {\"N\": 1}, \"62\": {\"N\": 1}, \"63\": {\"N\": 1}, \"64\": {\"N\": 1}, \"65\": {\"N\": 1}, \"66\": {\"Cl\": 1}, \"67\": {\"Cl\": 1}, \"68\": {\"Cl\": 1}, \"69\": {\"Cl\": 1}, \"70\": {\"Cl\": 1}, \"71\": {\"Cl\": 1}, \"72\": {\"Cl\": 1}, \"73\": {\"Cl\": 1}, \"74\": {\"Cl\": 1}, \"75\": {\"Cl\": 1}, \"76\": {\"O\": 1}, \"77\": {\"O\": 1}}" energy=-441.5438232421875 free_energy=-441.5438232421875 stress="-0.007584380451589823 -0.0025937038008123636 0.00048075077938847244 -0.0025937038008123636 -0.008009745739400387 0.0027971218805760145 0.00048075077938847244 0.0027971218805760145 -0.0016124799149110913" pbc="T T T"
Cd       6.07083248       4.67009313       3.27771124        0      -0.05356997       0.17340361      -0.16559830
Cd      -2.51961133       2.20243609       6.38435495        1       0.05295867      -0.30198434       0.12110628
Cd       8.03867107       1.03985888       2.63870257        2       0.40219426      -0.31532538       0.37317777
Cd      -4.47282180       5.81420199       7.02799968        3      -0.44955364       0.37111336      -0.26057190
H        0.06085327       1.80636809       0.10556320        4      -0.54941159       0.25534287       0.67905879
H        3.53566334       5.01415529       9.55633258        5      -0.07096974       0.30208704      -0.20529871
H       -1.08838298       2.87530796       0.14996742        6      -0.22116627       0.21897699      -0.27769113
H        4.70136734       3.97319273       9.46695542        7      -0.61025184       0.70729530      -0.59203845
H        0.88554285       7.87550634       2.83358331        8      -0.05014108      -0.27639806       0.03250724
H        2.72335229      -1.01624633       6.78297767        9       0.26409864       0.19890086       1.05399132
H       -0.45329756       7.22621980       2.02969295       10      -0.15798748      -0.41171628      -0.05142612
H        3.99612535      -0.33889610       7.63303533       11       0.56158334       0.25199205       0.17365851
H       -2.67891712       9.67535879       1.41631860       12      -0.23730323       0.30826455      -0.01697242
H        6.30955043      -2.84561329       8.27096025       13      -0.70489264      -0.45581251      -1.18056130
H        0.64107044       1.48540458       5.00324083       14      -0.45126340       0.40260214       0.65111488
H        2.91902971       5.38900840       4.61823925       15       0.14229485      -0.18852037      -0.28839636
H        3.10138262       1.20502779       5.59633680       16      -0.08917706      -0.15439722       0.14353108
H        0.51879731       5.67232242       4.04026017       17      -0.18041429       0.34843659       0.25124532
H        4.57688890       0.03552683       3.99080763       18       0.35261500      -0.15948871       0.05127714
H       -0.97326366       6.84479551       5.64541724       19      -0.73505449       0.11272152       0.10376579
H       -0.54209494       9.12654303       0.60212594       20      -0.13454106       0.01964906      -0.39796302
H        4.11740474      -2.27410222       9.07842311       21       0.11421090       0.00866629       0.62631506
H        4.72587266      -0.43115377       1.36395443       22       1.44892645       0.89352870      -0.16166696
H       -1.15710298       7.25527966       8.26795709       23      -0.64860076      -0.30511379       0.17046238
H        2.13271431       7.93910223       0.68345228       24      -0.18925674       0.11414334       0.04767039
H        1.44155445      -1.10582114       8.99177493       25       0.07270271      -0.21300098       0.02964725
H        0.75496136       7.00099902       0.01850523       26       0.07736629       0.08379021       0.04679114
H        2.81861435      -0.14751107       9.65690859       27      -0.11896434      -0.14730383      -0.06589977
H        3.94834698       6.81759964       1.89697294       28       0.58360279       0.93201083      -0.03798837
H       -0.34803821      -0.02430936       7.76574920       29       0.46293420       0.98563397      -0.21895836
H        3.61936529       2.80854065       2.91311351       30       0.13150807      -0.19331583       0.17912206
H       -0.04762108       4.00004971       6.71364888       31       0.69544202      -0.44145161       0.48751327
H        1.27094529       2.70492445       2.05919976       32      -0.14069594      -0.43535596       0.03821821
H        2.28639282       4.18099324       7.62068819       33      -0.65403974      -1.24634600       0.15249884
H        0.24700759       4.72733930       1.10788059       34      -1.12617779      -0.02820479      -0.41933289
H        3.33749979       2.09504115       8.59864543       35      -0.39147490       0.00752488      -0.26764742
C        2.97519033      -0.39332646       2.59813061       36      -0.60801578       0.47559774      -0.66415960
C        0.64270557       7.20533288       7.09375292       37      -3.07191610       0.35244411      -0.31083626
C        1.60396317      -0.14050102       2.33691855       38       0.75439608      -0.48808295       0.44319049
C        1.95891431       7.00745571       7.30509755       39       2.01515007       0.78166151       2.48632002
C        1.31462410       0.93549955       4.39330945       40       1.00897694      -0.57131082      -1.04509461
C        2.23445529       5.91036843       5.26233752       41       0.26743323       1.12714684       2.18235445
C        2.65821457       0.74193091       4.71560279       42       0.44224569      -0.27588525      -0.80683607
C        0.88756304       6.11770524       4.97733927       43       0.80815506      -1.06378663      -1.18486011
C        3.52000826       0.08936397       3.76931713       44      -1.16461527       0.85572934       1.46371400
C        0.06090732       6.71812961       5.89542601       45       0.79711413       0.60106468       0.61579359
C        0.00705599       9.21642941       1.53609842       46      -1.53213894      -2.13474393       0.40733740
C        3.57756485      -2.35719666       8.14524628       47       1.27580178       0.94583905      -1.15619183
C        1.35239289       7.20411668       0.92180904       48      -0.00821949      -0.69619310       0.16505830
C        2.21675059      -0.37271804       8.76267210       49       0.07584839       1.17007613      -0.93049115
C        1.99065607       5.92482153       1.42975842       50       0.43681791       1.28838468      -0.08915360
C        1.58311361       0.92199733       8.22979996       51      -0.69023222      -2.50335217      -0.05040516
C        3.34099441       5.94829784       1.90941864       52      -2.24973989      -1.56124926      -0.24874803
C        0.26430343       0.92594474       7.70388319       53       0.07424423      -1.47586465       0.87659895
C        3.13499937       3.67557463       2.49789011       54      -0.26250863       0.95242053      -0.53114355
C        0.46837631       3.12880032       7.18543854       55      -1.90795326       1.86327529      -1.12236440
C        1.83304346       3.61770430       2.01717252       56       0.24298851      -0.06701989      -0.03838651
C        1.72657077       3.19710853       7.67951606       57       1.54393268       2.57594824      -0.30606607
C        1.24312660       4.74817545       1.45921149       58       1.60326815       0.24962246       0.63716435
C        2.31202449       2.06940079       8.18246481       59       1.58739245       0.31804401       0.99754649
N        0.81932163       0.51381192       3.20142651       60      -0.73596799      -0.02336574       0.06164515
N        2.75723159       6.37451781       6.47150041       61       0.87753052      -1.46383345      -2.51953554
N        0.41178614       7.79235634       1.92050478       62       0.81311685       1.28832817      -0.14733495
N        3.17362601      -0.95473518       7.74779816       63      -1.61632645      -0.99129897      -0.59562033
N        3.85290216       4.82781542       2.42681241       64       0.97167897      -0.76741064       0.38666111
N       -0.28713711       2.03638638       7.21406232       65      -0.70668882      -0.83855492      -0.14094338
Cl       5.91175174       2.23869534       1.94699251       66       0.19593906      -0.02829725       0.02951211
Cl      -2.32113531       4.60637750       7.67888557       67      -0.20091048       0.08711214       0.07986407
Cl      -1.23587851       3.45263015       4.20053931       68      -0.16655354      -0.09974343      -0.18711960
Cl       4.81609565       3.41934452       5.46465512       69       0.10161634       0.04632419       0.14933313
Cl      -2.08867103       6.08280355       1.54921180       70      -0.12718926      -0.03589759       0.02780931
Cl       5.66608035       0.73286531       8.11385634       71       0.14656934       0.16341819      -0.11826878
Cl       7.07948864       0.01102567       4.86682883       72       0.30816463       0.20213816       0.06730319
Cl      -3.52888611       6.79623069       4.82587756       73      -0.23983769      -0.04615360      -0.09828705
Cl       4.00927485       9.30091471       1.02538044       74       0.11672871      -0.01136938      -0.00804678
Cl      -0.45907622      -2.41523177       8.66824268       75      -0.09842503      -0.10497271      -0.04321412
O       -0.57925033       2.28129072       0.73250892       76       0.71703494      -0.54400307      -0.72535706
O        4.14897083       4.60600337       8.89912991       77       0.80756497      -0.97453499       1.18659759
78
Lattice="9.4842156 0.0 0.0 -3.841838051378691 10.195780670824357 0.0 -2.0428054750101867 -3.3638299388917865 9.663116992110893" Properties=species:S:1:pos:R:3:spacegroup_kinds:I:1:forces:R:3 spacegroup="P 1" unit_cell=conventional occupancy="_JSON {\"0\": {\"Cd\": 1}, \"1\": {\"Cd\": 1}, \"2\": {\"Cd\": 1}, \"3\": {\"Cd\": 1}, \"4\": {\"H\": 1}, \"5\": {\"H\": 1}, \"6\": {\"H\": 1}, \"7\": {\"H\": 1}, \"8\": {\"H\": 1}, \"9\": {\"H\": 1}, \"10\": {\"H\": 1}, \"11\": {\"H\": 1}, \"12\": {\"H\": 1}, \"13\": {\"H\": 1}, \"14\": {\"H\": 1}, \"15\": {\"H\": 1}, \"16\": {\"H\": 1}, \"17\": {\"H\": 1}, \"18\": {\"H\": 1}, \"19\": {\"H\": 1}, \"20\": {\"H\": 1}, \"21\": {\"H\": 1}, \"22\": {\"H\": 1}, \"23\": {\"H\": 1}, \"24\": {\"H\": 1}, \"25\": {\"H\": 1}, \"26\": {\"H\": 1}, \"27\": {\"H\": 1}, \"28\": {\"H\": 1}, \"29\": {\"H\": 1}, \"30\": {\"H\": 1}, \"31\": {\"H\": 1}, \"32\": {\"H\": 1}, \"33\": {\"H\": 1}, \"34\": {\"H\": 1}, \"35\": {\"H\": 1}, \"36\": {\"C\": 1}, \"37\": {\"C\": 1}, \"38\": {\"C\": 1}, \"39\": {\"C\": 1}, \"40\": {\"C\": 1}, \"41\": {\"C\": 1}, \"42\": {\"C\": 1}, \"43\": {\"C\": 1}, \"44\": {\"C\": 1}, \"45\": {\"C\": 1}, \"46\": {\"C\": 1}, \"47\": {\"C\": 1}, \"48\": {\"C\": 1}, \"49\": {\"C\": 1}, \"50\": {\"C\": 1}, \"51\": {\"C\": 1}, \"52\": {\"C\": 1}, \"53\": {\"C\": 1}, \"54\": {\"C\": 1}, \"55\": {\"C\": 1}, \"56\": {\"C\": 1}, \"57\": {\"C\": 1}, \"58\": {\"C\": 1}, \"59\": {\"C\": 1}, \"60\": {\"N\": 1}, \"61\": {\"N\": 1}, \"62\": {\"N\": 1}, \"63\": {\"N\": 1}, \"64\": {\"N\": 1}, \"65\": {\"N\": 1}, \"66\": {\"Cl\": 1}, \"67\": {\"Cl\": 1}, \"68\": {\"Cl\": 1}, \"69\": {\"Cl\": 1}, \"70\": {\"Cl\": 1}, \"71\": {\"Cl\": 1}, \"72\": {\"Cl\": 1}, \"73\": {\"Cl\": 1}, \"74\": {\"Cl\": 1}, \"75\": {\"Cl\": 1}, \"76\": {\"O\": 1}, \"77\": {\"O\": 1}}" energy=-441.07196044921875 free_energy=-441.07196044921875 stress="-0.0077233328483998775 -0.0019133280729874969 0.00010649160685716197 -0.0019133280729874969 -0.010177021846175194 0.003905373625457287 0.00010649160685716197 0.003905373625457287 -5.845609484822489e-05" pbc="T T T"
Cd       6.04146078       4.67314117       3.30410773        0       0.04788116       0.20537981      -0.24485186
Cd      -2.49446530       2.20725280       6.39698564        1      -0.02836886      -0.35987279       0.09050925
Cd       8.03745578       1.03197062       2.62441812        2       0.34287682      -0.22744754       0.44703135
Cd      -4.47932509       5.80417429       7.01373935        3      -0.44549277       0.35407704      -0.15109667
H        0.08972412       1.80639319       0.09189466        4      -0.91894746       0.48823190       0.83956051
H        3.51693057       5.02792088       9.53088207        5       0.53753972      -0.18994391      -0.58876193
H       -1.10658175       2.89489419       0.12280448        6       0.53513551      -0.58049464       0.34998238
H        4.70609294       3.97689990       9.46193010        7      -0.20752460       0.20285961       0.00779762
H        0.89922598       7.88726538       2.86191018        8      -0.51813608      -0.36173099      -0.81887293
H        2.72325548      -1.02986529       6.80061509        9      -0.27583158       0.10692453      -0.14745335
H       -0.46554273       7.24006189       2.02413243       10      -0.00279280      -0.36248952      -0.04003242
H        3.97158341      -0.34356220       7.63951781       11       0.74346727       0.36620426      -0.01117133
H       -2.67582280       9.65627194       1.40618444       12      -0.45141649       0.16125737      -0.45580593
H        6.32897763      -2.84602340       8.28061743       13      -0.71558613      -0.47560465      -1.45368254
H        0.62810083       1.50900441       4.99049236       14       0.28033772      -0.34203506      -0.04809470
H        2.89583679       5.37721407       4.60907637       15       0.32663912      -0.21344459      -0.29934666
H        3.10339421       1.22229280       5.59342063       16      -0.28484893      -0.16049089       0.18007472
H        0.53915922       5.68790750       4.04699919       17      -0.34680238       0.13525066      -0.15348652
H        4.55771850       0.04273285       4.00808951       18       0.41500196      -0.06163503       0.00004074
H       -0.95703928       6.85810188       5.64497775       19      -1.15617156       0.04190172      -0.10551163
H       -0.51819017       9.13681519       0.57378832       20       0.05636216       0.09316975      -0.02410314
H        4.09442674      -2.24839987       9.08590572       21       0.51178801       0.02758034       1.14427960
H        4.72596684      -0.45044827       1.38127664       22       3.13852262       1.98949385      -0.42578375
H       -1.17316958       7.28227721       8.27469782       23      -0.52762902      -0.53383029       0.18786456
H        2.15911920       7.93421475       0.67457537       24      -0.38143408       0.12824312       0.09363355
H        1.46241060      -1.09276299       9.02019076       25      -0.23587602      -0.41829091      -0.07055835
H        0.77881068       6.99853515       0.04310050       26      -0.69095957      -0.04430489      -1.05754328
H        2.84414908      -0.16484953       9.65428820       27      -0.40351176      -0.15233709      -0.63346493
H        3.97672042       6.81292278       1.88766160       28       0.14769204       0.50902796      -0.06727607
H       -0.33101150      -0.03552673       7.77799079       29       0.55923712       1.19401038      -0.18067652
H        3.62277211       2.80092164       2.89249493       30      -0.10753118       0.23890457      -0.00625392
H       -0.02396189       3.98655116       6.69290448       31       0.14951575       0.36432767       0.05497836
H        1.26759885       2.70229681       2.03656216       32      -0.39787650      -0.66272986       0.01850952
H        2.28064772       4.18206273       7.60425161       33      -0.66024709      -1.60934055       0.19496012
H        0.24366886       4.70713218       1.11913710       34      -0.83025527       0.19484147      -0.42254895
H        3.35893816       2.11637375       8.57204786       35       0.12966010      -0.03039372       0.03356986
C        2.97031856      -0.40833362       2.62293557       36      -0.54960948       0.53955150      -2.16943264
C        0.63509296       7.23019568       7.11172568       37      -1.60889673      -0.94353133      -1.59405732
C        1.59015159      -0.15351829       2.31340449       38       1.57354999      -0.36311412       1.51782906
C        1.98327275       7.02172824       7.29381307       39       0.26774222       1.35591733       3.17366648
C        1.32534875       0.91289392       4.38334270       40      -1.15980554       0.68258518      -0.29760617
C        2.23759795       5.91968992       5.25664731       41       0.35302928       1.06464136       2.23855233
C        2.63146094       0.74673995       4.73241517       42       1.83960032      -0.51603568      -1.03776956
C        0.89778379       6.12322300       4.97587225       43       0.88555068      -1.05801630      -1.28685534
C        3.50722133       0.11568025       3.76747418       44      -1.10541534       0.51876217       1.84540439
C        0.06558767       6.70589111       5.87686870       45       1.03064013       1.61743045       2.36865616
C        0.03456076       9.22784806       1.51895424       46      -4.05173206      -3.08603072       1.47308397
C        3.58613587      -2.36821661       8.16064063       47       0.29026854       1.47072792      -1.73480713
C        1.35423002       7.21993499       0.90790479       48       0.76683789      -0.95418298       1.73600650
C        2.22143647      -0.37357535       8.74309069       49       0.73215437       1.19163513      -0.00189507
C        1.97698445       5.92907706       1.43814514       50       1.33306384       1.90182495      -0.31493598
C        1.60818280       0.91661150       8.23116465       51      -0.97099698      -2.00555682      -0.02031010
C        3.34982836       5.93648858       1.90577113       52      -2.47232628       0.04512630      -0.58000743
C        0.27885486       0.92734851       7.72605884       53       0.17268375      -1.45021749       0.63395298
C        3.12987654       3.68261026       2.47780252       54      -0.50619733       0.47144988      -0.32335773
C        0.45311826       3.14116844       7.16745909       55       0.16361332       0.29463148      -0.00955823
C        1.80670322       3.61771740       2.00098995       56       1.96380234       0.26153103       0.34714621
C        1.73904542       3.17078728       7.67107303       57       0.59825802       3.82150221      -0.81711972
C        1.25637453       4.76105243       1.44596668       58       0.17390724      -0.33713078       0.52171016
C        2.34081198       2.07264216       8.19481040       59       0.68652737      -0.14511292       0.47931683
N        0.82325886       0.50489202       3.18643839       60      -0.87462848      -0.12039948      -0.12236388
N        2.75515384       6.38480087       6.46363823       61       1.46690595      -1.78165221      -2.87371755
N        0.40832985       7.80163680       1.92622733       62       1.49241352       1.34576392      -0.01361875
N        3.15529935      -0.96205662       7.72731348       63      -0.83794379      -1.00157094       0.83327973
N        3.85608857       4.84474061       2.42646669       64       0.83628523      -2.08273840       0.52523154
N       -0.27210176       2.03285457       7.21395417       65      -1.07428443      -0.81962883      -0.12749599
Cl       5.88404051       2.24997548       1.91718450       66       0.33053514      -0.09521458       0.10432374
Cl      -2.30445797       4.63163811       7.65301420       67      -0.18697979       0.03012806       0.12645337
Cl      -1.25782556       3.47916730       4.17921131       68      -0.11907087      -0.14099553      -0.16762346
Cl       4.83748016       3.43810295       5.45275454       69       0.07066163      -0.01103586       0.18261133
Cl      -2.07340897       6.06853127       1.52976130       70      -0.17028511      -0.04472661       0.12132075
Cl       5.68721426       0.72631987       8.13488611       71       0.05228400       0.18527809      -0.17593700
Cl       7.06539018       0.01111170       4.86874939       72       0.34200358       0.25307569       0.04318082
Cl      -3.55013353       6.79439432       4.84234101       73      -0.20496160       0.02624459      -0.17464854
Cl       4.00913257       9.32383999       1.01756418       74       0.12273221      -0.11730996      -0.09092057
Cl      -0.43278779      -2.41464654       8.66485791       75      -0.13131636      -0.12199175      -0.03321803
O       -0.58241361       2.27218074       0.71613559       76       0.36797005       0.00525185      -1.51794863
O        4.16120551       4.58005909       8.89747887       77      -0.22298865       0.09786630       0.97706425
78
Lattice="9.4842156 0.0 0.0 -3.841838051378691 10.195780670824357 0.0 -2.0428054750101867 -3.3638299388917865 9.663116992110893" Properties=species:S:1:pos:R:3:spacegroup_kinds:I:1:forces:R:3 spacegroup="P 1" unit_cell=conventional occupancy="_JSON {\"0\": {\"Cd\": 1}, \"1\": {\"Cd\": 1}, \"2\": {\"Cd\": 1}, \"3\": {\"Cd\": 1}, \"4\": {\"H\": 1}, \"5\": {\"H\": 1}, \"6\": {\"H\": 1}, \"7\": {\"H\": 1}, \"8\": {\"H\": 1}, \"9\": {\"H\": 1}, \"10\": {\"H\": 1}, \"11\": {\"H\": 1}, \"12\": {\"H\": 1}, \"13\": {\"H\": 1}, \"14\": {\"H\": 1}, \"15\": {\"H\": 1}, \"16\": {\"H\": 1}, \"17\": {\"H\": 1}, \"18\": {\"H\": 1}, \"19\": {\"H\": 1}, \"20\": {\"H\": 1}, \"21\": {\"H\": 1}, \"22\": {\"H\": 1}, \"23\": {\"H\": 1}, \"24\": {\"H\": 1}, \"25\": {\"H\": 1}, \"26\": {\"H\": 1}, \"27\": {\"H\": 1}, \"28\": {\"H\": 1}, \"29\": {\"H\": 1}, \"30\": {\"H\": 1}, \"31\": {\"H\": 1}, \"32\": {\"H\": 1}, \"33\": {\"H\": 1}, \"34\": {\"H\": 1}, \"35\": {\"H\": 1}, \"36\": {\"C\": 1}, \"37\": {\"C\": 1}, \"38\": {\"C\": 1}, \"39\": {\"C\": 1}, \"40\": {\"C\": 1}, \"41\": {\"C\": 1}, \"42\": {\"C\": 1}, \"43\": {\"C\": 1}, \"44\": {\"C\": 1}, \"45\": {\"C\": 1}, \"46\": {\"C\": 1}, \"47\": {\"C\": 1}, \"48\": {\"C\": 1}, \"49\": {\"C\": 1}, \"50\": {\"C\": 1}, \"51\": {\"C\": 1}, \"52\": {\"C\": 1}, \"53\": {\"C\": 1}, \"54\": {\"C\": 1}, \"55\": {\"C\": 1}, \"56\": {\"C\": 1}, \"57\": {\"C\": 1}, \"58\": {\"C\": 1}, \"59\": {\"C\": 1}, \"60\": {\"N\": 1}, \"61\": {\"N\": 1}, \"62\": {\"N\": 1}, \"63\": {\"N\": 1}, \"64\": {\"N\": 1}, \"65\": {\"N\": 1}, \"66\": {\"Cl\": 1}, \"67\": {\"Cl\": 1}, \"68\": {\"Cl\": 1}, \"69\": {\"Cl\": 1}, \"70\": {\"Cl\": 1}, \"71\": {\"Cl\": 1}, \"72\": {\"Cl\": 1}, \"73\": {\"Cl\": 1}, \"74\": {\"Cl\": 1}, \"75\": {\"Cl\": 1}, \"76\": {\"O\": 1}, \"77\": {\"O\": 1}}" energy=-440.48895263671875 free_energy=-440.48895263671875 stress="-0.008514044806361198 -0.0002437765069771558 0.001960646826773882 -0.0002437765069771558 -0.011732425540685654 0.0032590082846581936 0.001960646826773882 0.0032590082846581936 -0.002340085804462433" pbc="T T T"
Cd       6.03678788       4.64845691       3.30512425        0      -0.05392693       0.27956933      -0.28563210
Cd      -2.52194052       2.22611746       6.40261129        1       0.20368919      -0.46729320       0.08769545
Cd       8.04643292       1.01673725       2.60134438        2       0.25762141      -0.24900201       0.46391892
Cd      -4.45053680       5.78359787       6.98586933        3      -0.55814248       0.40517557       0.00725240
H        0.09798828       1.80554483       0.09850783        4      -0.49232817       0.15003546       0.51642680
H        3.50473210       5.01843509       9.51108898        5       0.78796279      -0.36023736      -0.66822594
H       -1.08956996       2.90022473       0.11211933        6       0.97482800      -1.21497321       0.96074772
H        4.72716506       3.99863952       9.43569057        7       0.30404881      -0.36188781       0.64899415
H        0.91842602       7.87241620       2.86098623        8      -0.55315328      -0.34564468      -0.77727687
H        2.69953245      -1.04232531       6.82986227        9      -0.36523557       0.14187600      -0.54616040
H       -0.45628358       7.23591984       2.01161705       10       0.20963939      -0.46766940       0.03519774
H        3.98557953      -0.34427549       7.65423558       11      -0.11418218      -0.06830627      -0.07048022
H       -2.70391588       9.68568378       1.39700264       12       0.15772367       0.36740786       0.25138247
H        6.35401458      -2.83521231       8.25534573       13      -0.91635710      -0.58257723      -1.45577395
H        0.62132633       1.49543708       5.00076723       14       0.66794384      -0.67478347      -0.49357557
H        2.89214577       5.36596395       4.63651069       15       0.91536617      -0.75649923      -1.05414367
H        3.13094365       1.23688835       5.60125223       16      -0.89236623      -0.68073809      -0.60713911
H        0.56047320       5.66053764       4.05156038       17      -0.47906017       0.17422086      -0.16229795
H        4.54405066       0.04959400       4.01156292       18       0.86858362      -0.10970538       0.01692876
H       -0.95836097       6.85044154       5.62325213       19      -0.77240324      -0.04330651      -0.09439439
H       -0.48943635       9.11296013       0.56754009       20      -0.32964876       0.03173140      -0.32131624
H        4.08829470      -2.26301290       9.09688196       21       0.63990492       0.19543764       1.25407434
H        4.75520791      -0.45240074       1.36606467       22       1.31913280       0.93046331      -0.11907802
H       -1.17349952       7.28068895       8.28177390       23      -0.04539334      -0.18693143       0.16310787
H        2.16520304       7.95328705       0.64914387       24      -0.64047271      -0.44003159       0.44789898
H        1.45333548      -1.08589970       8.99229392       25      -0.03148185      -0.15880094       0.00360061
H        0.78031919       7.00161123       0.02070422       26       0.09987066       0.12229533       0.15862635
H        2.84854659      -0.18275401       9.62928524       27      -0.11321266       0.05980089       0.00019718
H        3.98976863       6.81097434       1.91452699       28      -0.24353179       0.24977869      -0.09169029
H       -0.34065437      -0.03955389       7.80291162       29       1.02548742       1.65746474      -0.15067720
H        3.64808714       2.77548459       2.89707758       30      -0.59690034       1.29895067      -0.51385224
H       -0.03705461       4.00940843       6.68336981       31       0.51219183       0.06684614       0.25623736
H        1.24226252       2.71706759       2.05142548       32      -0.29691166      -0.38398066      -0.02769398
H        2.27447893       4.15590634       7.62562819       33      -0.16782361      -0.87752390       0.13715553
H        0.26721474       4.70138957       1.12528523       34      -0.83907306       0.44613156      -0.48304534
H        3.35987123       2.12112398       8.55766423       35       0.32989216      -0.09782998       0.15872300
C        2.98375239      -0.40892644       2.62069928       36      -1.06289411       0.07799135      -2.81321454
C        0.61847847       7.21907587       7.12998841       37      -0.98949593      -1.14201772      -2.66972065
C        1.60432167      -0.13320727       2.32162892       38       0.93405282      -1.02981448      -0.15512806
C        1.98279783       6.99808595       7.28351530       39      -0.27531633       2.23212600       4.16752768
C        1.32934713       0.90214479       4.35786898       40      -1.81435728       1.55105722       1.12761402
C        2.22696948       5.90697258       5.22965448       41       1.14297605       1.74426877       4.17257881
C        2.62055588       0.73197043       4.72998572       42       2.86817122      -0.15142387      -0.70118344
C        0.90738403       6.10452362       4.98169619       43       0.49196309      -1.29448271      -2.10435295
C        3.51221465       0.11413504       3.74357427       44      -1.24085331       0.93483794       2.95025253
C        0.07229146       6.68935493       5.86163491       45       0.14186300       2.27909636       3.55266285
C        0.02496836       9.20266584       1.51855605       46      -1.36895919      -1.88168454       1.30543423
C        3.59130728      -2.34102497       8.16624738       47      -0.70183736       0.47807091      -1.59982932
C        1.38026600       7.20168051       0.93009264       48       0.04385717      -0.35102293      -0.52401173
C        2.22818156      -0.35930540       8.73829994       49      -0.01988064       0.04819985       0.23452801
C        1.99530973       5.90877646       1.41752864       50       1.92851567       4.08394670      -0.18505618