88
Lattice="8.83166661 0.0 0.0 -3.2541602410320862e-06 9.97056939999947 0.0 -6.363674828045405e-07 -3.865034661470162 10.568897557375767" Properties=species:S:1:pos:R:3:spacegroup_kinds:I:1:forces:R:3 spacegroup="P 1" unit_cell=conventional occupancy="_JSON {\"0\": {\"Zn\": 1}, \"1\": {\"Zn\": 1}, \"2\": {\"Zn\": 1}, \"3\": {\"Zn\": 1}, \"4\": {\"P\": 1}, \"5\": {\"P\": 1}, \"6\": {\"P\": 1}, \"7\": {\"P\": 1}, \"8\": {\"H\": 1}, \"9\": {\"H\": 1}, \"10\": {\"H\": 1}, \"11\": {\"H\": 1}, \"12\": {\"H\": 1}, \"13\": {\"H\": 1}, \"14\": {\"H\": 1}, \"15\": {\"H\": 1}, \"16\": {\"H\": 1}, \"17\": {\"H\": 1}, \"18\": {\"H\": 1}, \"19\": {\"H\": 1}, \"20\": {\"H\": 1}, \"21\": {\"H\": 1}, \"22\": {\"H\": 1}, \"23\": {\"H\": 1}, \"24\": {\"H\": 1}, \"25\": {\"H\": 1}, \"26\": {\"H\": 1}, \"27\": {\"H\": 1}, \"28\": {\"H\": 1}, \"29\": {\"H\": 1}, \"30\": {\"H\": 1}, \"31\": {\"H\": 1}, \"32\": {\"H\": 1}, \"33\": {\"H\": 1}, \"34\": {\"H\": 1}, \"35\": {\"H\": 1}, \"36\": {\"H\": 1}, \"37\": {\"H\": 1}, \"38\": {\"H\": 1}, \"39\": {\"H\": 1}, \"40\": {\"C\": 1}, \"41\": {\"C\": 1}, \"42\": {\"C\": 1}, \"43\": {\"C\": 1}, \"44\": {\"C\": 1}, \"45\": {\"C\": 1}, \"46\": {\"C\": 1}, \"47\": {\"C\": 1}, \"48\": {\"C\": 1}, \"49\": {\"C\": 1}, \"50\": {\"C\": 1}, \"51\": {\"C\": 1}, \"52\": {\"C\": 1}, \"53\": {\"C\": 1}, \"54\": {\"C\": 1}, \"55\": {\"C\": 1}, \"56\": {\"C\": 1}, \"57\": {\"C\": 1}, \"58\": {\"C\": 1}, \"59\": {\"C\": 1}, \"60\": {\"C\": 1}, \"61\": {\"C\": 1}, \"62\": {\"C\": 1}, \"63\": {\"C\": 1}, \"64\": {\"C\": 1}, \"65\": {\"C\": 1}, \"66\": {\"C\": 1}, \"67\": {\"C\": 1}, \"68\": {\"N\": 1}, \"69\": {\"N\": 1}, \"70\": {\"N\": 1}, \"71\": {\"N\": 1}, \"72\": {\"N\": 1}, \"73\": {\"N\": 1}, \"74\": {\"N\": 1}, \"75\": {\"N\": 1}, \"76\": {\"O\": 1}, \"77\": {\"O\": 1}, \"78\": {\"O\": 1}, \"79\": {\"O\": 1}, \"80\": {\"O\": 1}, \"81\": {\"O\": 1}, \"82\": {\"O\": 1}, \"83\": {\"O\": 1}, \"84\": {\"O\": 1}, \"85\": {\"O\": 1}, \"86\": {\"O\": 1}, \"87\": {\"O\": 1}}" energy=-565.1614990234375 free_energy=-565.1614990234375 stress="-0.0006273321341723204 0.00023801805218681693 0.0003849088097922504 0.00023801805218681693 -0.0033204376231878996 6.204876262927428e-05 0.0003849088097922504 6.204876262927428e-05 -0.005397919565439224" pbc="T T T"
Zn       6.19425290      -1.12391192       4.83489923        0      -0.10906737       0.06733778      -0.06919116
Zn       1.77934804       2.24439222       5.73119813        1      -0.08826266      -0.07494727       0.10517050
Zn       2.63983767       7.22704864       5.73330059        2       0.09301905      -0.04591883       0.06755429
Zn       7.05579397       3.86401484       4.83411084        3       0.10599829       0.03446019      -0.04075301
P        4.95864387       6.14337451       3.89500124        4      -0.06560698      -0.21702102      -0.23759302
P        0.54254843       4.94881887       6.67590619        5      -0.07317853       0.09593482       0.20058164
P        3.87615119      -0.03551284       6.67434170        6       0.07208624      -0.14249292       0.25366047
P        8.29231952       1.15589335       3.89536716        7       0.02319354       0.03339474      -0.29050899
H        3.97061093       6.00539070       2.89412557        8      -0.04397586      -0.00151195       0.09201208
H        8.38344780       5.08461885       7.67134256        9      -0.05608972       0.00564356      -0.04204432
H        4.86462077       0.10015712       7.67321035       10       0.05786072      -0.00162107      -0.06581277
H        0.45081869       1.02447300       2.89515661       11       0.02965278      -0.01998784       0.09166478
H        0.02651625      -0.61809652       6.53625964       12      -0.04611970       0.00271858       0.00843574
H        4.44232158       1.73456423       4.02881959       13      -0.10584319       0.05969310      -0.04942858
H        8.80638593       6.71923169       4.03021701       14       0.04499377      -0.01665421       0.01297522
H        4.39217029       4.37197868       6.53768664       15       0.03884918       0.01063891      -0.00695357
H        5.48137623       6.94713718       7.33489107       16      -0.03844290      -0.00978878       0.07438675
H        1.06295874       4.14431773       3.23351931       17      -0.07262114       0.03189999      -0.05178093
H        3.35458359      -0.84155087       3.23234892       18       0.06016244       0.02762996      -0.05891257
H        7.76868161       1.96089800       7.33519264       19      -0.02848459       0.01246630       0.08228313
H        7.11637809      -3.00691984       9.58996951       20       0.01772007       0.06127653      -0.06594609
H        2.70029467       4.12404129       0.97993716       21       0.00511109      -0.04557259       0.06792064
H        1.71570902       9.11003918       0.98354554       22      -0.00888043       0.00903508      -0.06837557
H        6.13106851       1.97932047       9.58736014       23      -0.01478375       0.02842364       0.00338493
H        1.50033704      -1.31394520       8.57653952       24       0.00372726       0.06005199      -0.00611971
H        5.91904253       2.43266463       1.99308236       25      -0.03364250      -0.03449732      -0.01569698
H        7.32909618       7.41712592       1.99241212       26       0.03945337      -0.04778013      -0.02565424
H        2.91702998       3.67427715       8.57808719       27      -0.01648571       0.03608325      -0.01898920
H        0.73606275      -2.22102735       9.90503925       28      -0.00646150      -0.00648120       0.15266581
H        5.15157399       3.33992003       0.66271659       29       0.01665138       0.03815453      -0.17816778
H        8.09668424       8.32653048       0.66474620       30      -0.01654589       0.02598809      -0.17406982
H        3.67969727       2.76301724       9.90648127       31       0.01362024       0.01483102       0.12416209
H        1.42920202       1.12885100       8.52865145       32      -0.04805712       0.05479037       0.04935770
H        5.84456359      -0.01170487       2.04069624       33      -0.03322703      -0.03568378      -0.03484865
H        7.40526952       4.97467593       2.03888880       34       0.01784319      -0.05312872      -0.01201917
H        2.98961989       6.11645560       8.52703433       35       0.05963875       0.02623824       0.07645622
H        7.99455250       2.84910301       0.94617352       36      -0.05462575       0.06139068      -0.05690260
H        3.57829259      -1.72606560       9.62004313       37      -0.08202630       0.00398988       0.02363417
H        0.83770802       3.25770093       9.62228713       38       0.09975648       0.05277006       0.00294325
H        5.24998895       7.83304835       0.94758078       39       0.11356959      -0.05607133      -0.00110829
C        8.16905555      -1.28696350       7.04734409       40      -0.19730054       0.01306447      -0.12605096
C        3.75218148       2.40766288       3.51816911       41       0.00841340      -0.13950893       0.17048827
C        0.66353028       7.38871247       3.52082537       42       0.24518016       0.09793803      -0.00219090
C        5.08009937       3.70097293       7.04675758       43       0.05537832      -0.01042035       0.04544096
C        6.42728254      -2.52629082       7.51282896       44      -0.14143690      -0.12233683       0.18866336
C        2.00899332       3.64997912       3.05782454       45       0.07192865      -0.01426682      -0.19388303
C        2.40824191       8.63427369       3.05683419       46      -0.12996793       0.00316596      -0.25812030
C        6.81960435       2.45593647       7.51357884       47       0.10765740      -0.06725937       0.10144612
C        7.22770586      -2.52420098       8.62374408       48      -0.05210361      -0.03431976      -0.12166291
C        2.81163496       3.64479636       1.94803369       49      -0.06097628       0.08391711       0.00960845
C        1.60237347       8.63072783       1.94661601       50       0.11166809      -0.01749238       0.24673253
C        6.01858537       2.46072799       8.62290498       51       0.00796561      -0.00043926      -0.11934868
C        0.60090831      -1.38766406       9.20322894       52       0.16716635      -0.00248113       0.05706140
C        5.01836640       2.50948563       1.36605381       53       0.20081815      -0.14576504      -0.09392797
C        8.22965884       7.49222860       1.36448530       54      -0.22123395      -0.00065991      -0.04314194
C        3.81708172       3.59619062       9.20286233       55      -0.27501094       0.03504494       0.14613420
C        0.31517828      -0.09462975       9.92832734       56       0.13583691      -0.20613809      -0.15196289
C        4.73177812       1.21194342       0.64109194       57       0.03366490       0.46530494      -0.00556230
C        8.51381729       6.20117741       0.63696013       58      -0.08713508       0.21475956       0.13377599
C        4.09942541       4.88952621       9.92808429       59       0.00365905      -0.28562850       0.04034852
C        0.79717282       1.12193667       9.42139490       60      -0.00032409       0.01096354      -0.07601231
C        5.21510433      -0.00154222       1.14702435       61      -0.03084287      -0.10013532       0.06365249
C        8.03416316       4.98290187       1.14587505       62       0.03316455       0.15899278       0.03849880
C        3.61857347       6.10457658       9.42317801       63      -0.04130864       0.15881741      -0.15944360
C        8.35154222       3.78605859       0.51141480       64      -0.09397105      -0.22408223       0.04171174
C        3.93395589      -2.66048433      10.05355841       65       0.04995605      -0.15357472       0.14937760
C        0.48084215       2.32478859      10.05461300       66       0.01083959      -0.09870869       0.02158180
C        4.89771155       8.76687199       0.51401778       67      -0.03955162       0.06766252      -0.10577898
N        7.02155713      -1.74481734       6.53598764       68       0.08467783       0.15891230      -0.30649674
N        2.60959951       2.86468458       4.03303961       69      -0.08264343      -0.07003735       0.28961620
N        1.80992132       7.85060365       4.03232137       70      -0.06095704      -0.17841423       0.30200216
N        6.22154860       3.23922328       6.53574614       71       0.11140133       0.10625224      -0.33521909
N        8.32376542      -1.74491145       8.30898087       72       0.13595110      -0.04284979       0.33716407
N        3.91037455       2.86540110       2.25602843       73      -0.03501448       0.08602192      -0.17563844
N        0.50640484       7.84841461       2.25610628       74       0.00757822       0.04299521      -0.11215407
N        4.92147744       3.24299078       8.31217773       75       0.07075793      -0.09620239       0.12440148
O        5.69132581       7.45619037       3.55603812       76       0.03859410       0.07054371       0.14852029
O        1.27609243       3.63512085       7.00872506       77       0.04445920      -0.08118981      -0.10699242
O        3.14094958      -1.35237074       7.00908100       78       0.02246559       0.03590314      -0.11936066
O        7.55598762       2.47066825       3.55853559       79       0.01443286       0.00057837       0.14050001
O        5.85439754       4.90948266       3.72766150       80      -0.11517280       0.24270089       0.10568081
O        1.43755039       6.17950719       6.84175053       81      -0.04288412      -0.12814580      -0.09465137
O        2.98269779       1.19123463       6.84007845       82      -0.07368785       0.02623487      -0.10211913
O        7.39428445      -0.07180829       3.72806543       83       0.05529035       0.09507427       0.10468850
O        4.24954136       6.17448710       5.26568084       84       0.14119129       0.13023254      -0.01204912
O        8.66550447       4.91538112       5.30710168       85       0.08674821      -0.11938900      -0.07679038
O        4.58241739      -0.07299116       5.30541400       86      -0.05908804      -0.11349843      -0.09905419
O        0.16799369       1.19307746       5.26418526       87      -0.08671248       0.10218085       0.07214372
88
Lattice="8.83166661 0.0 0.0 -3.2541602410320862e-06 9.97056939999947 0.0 -6.363674828045405e-07 -3.865034661470162 10.568897557375767" Properties=species:S:1:pos:R:3:spacegroup_kinds:I:1:forces:R:3 spacegroup="P 1" unit_cell=conventional occupancy="_JSON {\"0\": {\"Zn\": 1}, \"1\": {\"Zn\": 1}, \"2\": {\"Zn\": 1}, \"3\": {\"Zn\": 1}, \"4\": {\"P\": 1}, \"5\": {\"P\": 1}, \"6\": {\"P\": 1}, \"7\": {\"P\": 1}, \"8\": {\"H\": 1}, \"9\": {\"H\": 1}, \"10\": {\"H\": 1}, \"11\": {\"H\": 1}, \"12\": {\"H\": 1}, \"13\": {\"H\": 1}, \"14\": {\"H\": 1}, \"15\": {\"H\": 1}, \"16\": {\"H\": 1}, \"17\": {\"H\": 1}, \"18\": {\"H\": 1}, \"19\": {\"H\": 1}, \"20\": {\"H\": 1}, \"21\": {\"H\": 1}, \"22\": {\"H\": 1}, \"23\": {\"H\": 1}, \"24\": {\"H\": 1}, \"25\": {\"H\": 1}, \"26\": {\"H\": 1}, \"27\": {\"H\": 1}, \"28\": {\"H\": 1}, \"29\": {\"H\": 1}, \"30\": {\"H\": 1}, \"31\": {\"H\": 1}, \"32\": {\"H\": 1}, \"33\": {\"H\": 1}, \"34\": {\"H\": 1}, \"35\": {\"H\": 1}, \"36\": {\"H\": 1}, \"37\": {\"H\": 1}, \"38\": {\"H\": 1}, \"39\": {\"H\": 1}, \"40\": {\"C\": 1}, \"41\": {\"C\": 1}, \"42\": {\"C\": 1}, \"43\": {\"C\": 1}, \"44\": {\"C\": 1}, \"45\": {\"C\": 1}, \"46\": {\"C\": 1}, \"47\": {\"C\": 1}, \"48\": {\"C\": 1}, \"49\": {\"C\": 1}, \"50\": {\"C\": 1}, \"51\": {\"C\": 1}, \"52\": {\"C\": 1}, \"53\": {\"C\": 1}, \"54\": {\"C\": 1}, \"55\": {\"C\": 1}, \"56\": {\"C\": 1}, \"57\": {\"C\": 1}, \"58\": {\"C\": 1}, \"59\": {\"C\": 1}, \"60\": {\"C\": 1}, \"61\": {\"C\": 1}, \"62\": {\"C\": 1}, \"63\": {\"C\": 1}, \"64\": {\"C\": 1}, \"65\": {\"C\": 1}, \"66\": {\"C\": 1}, \"67\": {\"C\": 1}, \"68\": {\"N\": 1}, \"69\": {\"N\": 1}, \"70\": {\"N\": 1}, \"71\": {\"N\": 1}, \"72\": {\"N\": 1}, \"73\": {\"N\": 1}, \"74\": {\"N\": 1}, \"75\": {\"N\": 1}, \"76\": {\"O\": 1}, \"77\": {\"O\": 1}, \"78\": {\"O\": 1}, \"79\": {\"O\": 1}, \"80\": {\"O\": 1}, \"81\": {\"O\": 1}, \"82\": {\"O\": 1}, \"83\": {\"O\": 1}, \"84\": {\"O\": 1}, \"85\": {\"O\": 1}, \"86\": {\"O\": 1}, \"87\": {\"O\": 1}}" energy=-565.1615600585938 free_energy=-565.1615600585938 stress="-0.0009827458998188376 -0.00023028187570162117 0.0002654830750543624 -0.00023028187570162117 -0.003165168222039938 -0.0005215489072725177 0.0002654830750543624 -0.0005215489072725177 -0.0050787171348929405" pbc="T T T"
Zn       6.19588512      -1.12505496       4.83272456        0      -0.12891002       0.09817913      -0.04630596
Zn       1.77822232       2.24375216       5.72996096        1      -0.06305221      -0.08147509       0.09589873
Zn       2.63937596       7.22549700       5.73417746        2       0.09521317      -0.04596588       0.03193204
Zn       7.05874916       3.86656525       4.83181033        3       0.08507483      -0.00487438      -0.00629408
P        4.95851512       6.14385529       3.89622646        4      -0.01616701      -0.20601740      -0.27650303
P        0.54319726       4.94907458       6.67866729        5      -0.12780043       0.00728535      -0.04317492
P        3.87454214      -0.03783318       6.67675814        6       0.14018807       0.02555238       0.04481822
P        8.29489894       1.15535256       3.89399692        7       0.03700179       0.11951966      -0.19277155
H        3.96977750       6.00734558       2.89443709        8      -0.02899813      -0.00591649       0.11092089
H        8.38365100       5.08584338       7.66911893        9      -0.08631144       0.00188154       0.00336123
H        4.86526141       0.10151115       7.67051354       10       0.06658292      -0.01852147      -0.03186505
H        0.45318130       1.02427485       2.89238783       11       0.02190576      -0.02199202       0.11572766
H        0.02833736      -0.61786726       6.53760104       12      -0.08478919      -0.03131224       0.03950572
H        4.44331477       1.73739695       4.02751052       13      -0.05947954       0.00557500      -0.01773666
H        8.80481813       6.71674442       4.02909888       14       0.17720723       0.10813476      -0.07666385
H        4.39177068       4.37256859       6.53995688       15       0.08213324      -0.03194639       0.01075105
H        5.48333074       6.94930227       7.33589215       16      -0.12232506      -0.05540688       0.04544048
H        1.06240077       4.14572707       3.23276946       17       0.03978197      -0.02244896      -0.07873375
H        3.35562060      -0.84035556       3.23090793       18       0.03138796       0.00201953      -0.04955980
H        7.76929127       1.96107902       7.33790411       19      -0.07500999       0.03126086       0.07319605
H        7.11659352      -3.00517741       9.59146517       20       0.01144947       0.04252091      -0.05916500
H        2.69942895       4.12645430       0.97751785       21       0.03221152      -0.12434835       0.22426526
H        1.71472779       9.10840555       0.98244149       22       0.00895851      -0.00018679      -0.00031932
H        6.13081673       1.97860889       9.58644784       23      -0.00981607       0.02357423       0.01718250
H        1.50011136      -1.31141771       8.57472839       24       0.01111868       0.03839864      -0.02139262
H        5.91927738       2.43201851       1.99025558       25       0.07005210      -0.04598900       0.07924976
H        7.32896247       7.41773234       1.99381559       26       0.01592958      -0.05915368      -0.00977279
H        2.91818611       3.67565818       8.57749594       27      -0.05249798       0.03852154      -0.03006495
H        0.73836641      -2.22243853       9.90735919       28      -0.01862347       0.05707519       0.07120200
H        5.15426940       3.34181041       0.66074063       29       0.00226474      -0.06926000      -0.08376782
H        8.09608267       8.32765975       0.66541961       30      -0.02068217      -0.03041573      -0.14514375
H        3.67903401       2.76242127       9.90627909       31       0.00596996       0.02097276       0.12192373
H        1.42787114       1.13002510       8.53050231       32      -0.00241061       0.06968077      -0.00865737
H        5.84338715      -0.01465521       2.03934821       33      -0.03642467      -0.03825044      -0.02037646
H        7.40659184       4.97681463       2.03810018       34       0.03046870      -0.07769027      -0.03727771
H        2.99213862       6.11796271       8.52466722       35       0.09714306       0.02923635       0.14508583
H        7.99356545       2.84786604       0.94426224       36      -0.04787311       0.07114294      -0.05923667
H        3.57939658      -1.72801982       9.61772391       37      -0.07655823      -0.00398971       0.02805777
H        0.83809880       3.25577788       9.62098917       38       0.09681077       0.04689150       0.02038027
H        5.24993828       7.83121547       0.94753638       39       0.09294879       0.03766988      -0.03373580
C        8.16852707      -1.28779789       7.04805692       40      -0.11945537       0.09808221      -0.22174394
C        3.75279215       2.40638997       3.51665139       41      -0.00557408      -0.09853931       0.15993458
C        0.66646680       7.39092696       3.51847203       42      -0.09500143      -0.17908277       0.11425725
C        5.08070441       3.69839814       7.04752291       43      -0.08538237       0.10056140      -0.00417909
C        6.42827075      -2.52758476       7.51126103       44      -0.06385526      -0.06025434       0.20445371
C        2.01177689       3.65030516       3.05543690       45      -0.13675258       0.01224720      -0.00988251
C        2.40925347       8.63271070       3.05719617       46      -0.05951998       0.05618086      -0.21350957
C        6.81701010       2.45475832       7.51180617       47       0.21716046      -0.13600166       0.18549177
C        7.22817897      -2.52707100       8.62358268       48      -0.08935852      -0.00751144      -0.20447245
C        2.81338415       3.64400687       1.94980827       49      -0.03491443       0.22879158      -0.34211400
C        1.60358400       8.63227326       1.94952132       50       0.02691166      -0.02131063       0.03055516
C        6.01808487       2.46068941       8.62282993       51      -0.01022263      -0.01497158      -0.12138852
C        0.60119715      -1.38930587       9.20061455       52       0.14346939      -0.03753918       0.12943509
C        5.02067309       2.50852679       1.36837621       53       0.10106096      -0.00568634      -0.32027099
C        8.22823540       7.49073931       1.36556319       54      -0.19536579       0.07600814      -0.12211954
C        3.81600052       3.59628217       9.20312627       55      -0.22772907       0.00000337       0.14574033
C        0.31413767      -0.09681126       9.92555098       56       0.16922796      -0.09705679      -0.13658458
C        4.73245466       1.21307134       0.64220595       57       0.01058261       0.35104400      -0.05178215
C        8.51326512       6.20048799       0.63811255       58      -0.04829397       0.21861728       0.07098751
C        4.10194233       4.88710368       9.92691040       59      -0.05519889      -0.10588505       0.04404324
C        0.79805658       1.12429601       9.42213544       60      -0.05193561      -0.20780742      -0.05899908
C        5.21249092      -0.00403504       1.14695468       61       0.02531437       0.11962090       0.11926194
C        8.03551653       4.98246689       1.14396134       62      -0.00864138       0.12077542       0.09947117
C        3.62017047       6.10648914       9.42449088       63      -0.08452906      -0.09768521      -0.30608797
C        8.35253005       3.78436978       0.50923267       64      -0.11871114      -0.21599187       0.05137963
C        3.93506426      -2.66274501      10.05178958       65       0.11220595       0.04810807       0.28753689
C        0.48226623       2.32285495      10.05553019       66      -0.02061977       0.03783789       0.06090025
C        4.89892559       8.76895804       0.51311249       67      -0.05765897      -0.22449967      -0.13229911
N        7.02243102      -1.74288371       6.53399502       68       0.02112577       0.07292594      -0.23245144
N        2.61072282       2.86277247       4.03125046       69      -0.11148638      -0.05203487       0.30521411
N        1.80912791       7.84849154       4.03233195       70       0.07059757      -0.10967989       0.32056808
N        6.22057361       3.23708826       6.53583133       71       0.12747438       0.13396698      -0.42030206
N        8.32227406      -1.74730114       8.30722475       72       0.24222142      -0.04074551       0.44073582
N        3.91229448       2.86671699       2.25558159       73       0.00441599       0.03209966      -0.13381842
N        0.50564652       7.84751606       2.25355426       74       0.12960395       0.10804659      -0.02282384
N        4.91981008       3.24197399       8.31263969       75       0.13008645      -0.12502228       0.11826879
O        5.69047897       7.45910931       3.55534278       76       0.00480910      -0.02333699       0.15339717
O        1.27696975       3.63329121       7.00764222       77       0.01613269       0.00035854      -0.08574632
O        3.14083610      -1.35401686       7.00670362       78      -0.00904454       0.00835988      -0.07373822
O        7.55784051       2.47066483       3.55845709       79       0.03190592      -0.01716577       0.12451510
O        5.85514113       4.90865418       3.72748009       80      -0.17243491       0.32032037       0.10493194
O        1.43494424       6.18119302       6.83943682       81      -0.02555354      -0.12477579      -0.06212322
O        2.98367296       1.19388157       6.84191524       82      -0.03757165      -0.07258932      -0.10541107
O        7.39540001      -0.06959775       3.72989587       83       0.04568086       0.04399636       0.07760650
O        4.25057183       6.17534758       5.26766230       84       0.14971901       0.12534493      -0.02735959
O        8.66420281       4.91376531       5.30445219       85       0.19351977      -0.09207774       0.09606305
O        4.58292798      -0.07241718       5.30356380       86      -0.12726682      -0.12271396       0.03701697
O        0.16768945       1.19528902       5.26715480       87      -0.11522171       0.07673667      -0.02293776
88
Lattice="8.83166661 0.0 0.0 -3.2541602410320862e-06 9.97056939999947 0.0 -6.363674828045405e-07 -3.865034661470162 10.568897557375767" Properties=species:S:1:pos:R:3:spacegroup_kinds:I:1:forces:R:3 spacegroup="P 1" unit_cell=conventional occupancy="_JSON {\"0\": {\"Zn\": 1}, \"1\": {\"Zn\": 1}, \"2\": {\"Zn\": 1}, \"3\": {\"Zn\": 1}, \"4\": {\"P\": 1}, \"5\": {\"P\": 1}, \"6\": {\"P\": 1}, \"7\": {\"P\": 1}, \"8\": {\"H\": 1}, \"9\": {\"H\": 1}, \"10\": {\"H\": 1}, \"11\": {\"H\": 1}, \"12\": {\"H\": 1}, \"13\": {\"H\": 1}, \"14\": {\"H\": 1}, \"15\": {\"H\": 1}, \"16\": {\"H\": 1}, \"17\": {\"H\": 1}, \"18\": {\"H\": 1}, \"19\": {\"H\": 1}, \"20\": {\"H\": 1}, \"21\": {\"H\": 1}, \"22\": {\"H\": 1}, \"23\": {\"H\": 1}, \"24\": {\"H\": 1}, \"25\": {\"H\": 1}, \"26\": {\"H\": 1}, \"27\": {\"H\": 1}, \"28\": {\"H\": 1}, \"29\": {\"H\": 1}, \"30\": {\"H\": 1}, \"31\": {\"H\": 1}, \"32\": {\"H\": 1}, \"33\": {\"H\": 1}, \"34\": {\"H\": 1}, \"35\": {\"H\": 1}, \"36\": {\"H\": 1}, \"37\": {\"H\": 1}, \"38\": {\"H\": 1}, \"39\": {\"H\": 1}, \"40\": {\"C\": 1}, \"41\": {\"C\": 1}, \"42\": {\"C\": 1}, \"43\": {\"C\": 1}, \"44\": {\"C\": 1}, \"45\": {\"C\": 1}, \"46\": {\"C\": 1}, \"47\": {\"C\": 1}, \"48\": {\"C\": 1}, \"49\": {\"C\": 1}, \"50\": {\"C\": 1}, \"51\": {\"C\": 1}, \"52\": {\"C\": 1}, \"53\": {\"C\": 1}, \"54\": {\"C\": 1}, \"55\": {\"C\": 1}, \"56\": {\"C\": 1}, \"57\": {\"C\": 1}, \"58\": {\"C\": 1}, \"59\": {\"C\": 1}, \"60\": {\"C\": 1}, \"61\": {\"C\": 1}, \"62\": {\"C\": 1}, \"63\": {\"C\": 1}, \"64\": {\"C\": 1}, \"65\": {\"C\": 1}, \"66\": {\"C\": 1}, \"67\": {\"C\": 1}, \"68\": {\"N\": 1}, \"69\": {\"N\": 1}, \"70\": {\"N\": 1}, \"71\": {\"N\": 1}, \"72\": {\"N\": 1}, \"73\": {\"N\": 1}, \"74\": {\"N\": 1}, \"75\": {\"N\": 1}, \"76\": {\"O\": 1}, \"77\": {\"O\": 1}, \"78\": {\"O\": 1}, \"79\": {\"O\": 1}, \"80\": {\"O\": 1}, \"81\": {\"O\": 1}, \"82\": {\"O\": 1}, \"83\": {\"O\": 1}, \"84\": {\"O\": 1}, \"85\": {\"O\": 1}, \"86\": {\"O\": 1}, \"87\": {\"O\": 1}}" energy=-565.1660766601562 free_energy=-565.1660766601562 stress="-0.0010303992312401533 -0.00016105455870274454 6.550973921548575e-05 -0.00016105455870274454 -0.002984376857057214 -0.0007076946785673499 6.550973921548575e-05 -0.0007076946785673499 -0.005108725745230913" pbc="T T T"
Zn       6.19765400      -1.12255999       4.83028411        0      -0.13004057       0.05986119      -0.03680214
Zn       1.77844768       2.24366864       5.72771658        1      -0.08524336      -0.05892593       0.11790293
Zn       2.64097563       7.22808481       5.73262723        2       0.06573934      -0.07247293       0.06283969
Zn       7.05969306       3.86392427       4.82883103        3       0.08604009       0.04198991       0.02023706
P        4.95820740       6.14120189       3.89687212        4      -0.00292325      -0.11066364      -0.25107983
P        0.54091558       4.95160941       6.68028271        5      -0.05265430      -0.24650799      -0.04419535
P        3.87698509      -0.03539228       6.67627547        6       0.08295077      -0.16004471       0.07230532
P        8.29356205       1.15818836       3.89369833        7       0.08787197       0.02417906      -0.17202228
H        3.97153363       6.00656839       2.89668149        8      -0.07187872      -0.00942313       0.07382236
H        8.38259165       5.08784774       7.66856631        9      -0.11936327       0.00264361       0.04081567
H        4.86710213       0.10104470       7.67298563       10       0.04337750      -0.00804317      -0.05851516
H        0.45032191       1.02463432       2.89441060       11       0.05552094      -0.01221393       0.07282070
H        0.02798558      -0.61808747       6.53529589       12      -0.07598686      -0.02859047       0.03397274
H        4.44309520       1.73715800       4.02789224       13      -0.04299178      -0.00888601      -0.00660862
H        8.80329864       6.71889054       4.02731414       14       0.13059577       0.05816998      -0.03980178
H        4.39158463       4.37382093       6.53844005       15       0.08648770      -0.04309213       0.04145159
H        5.48385776       6.94648524       7.33571646       16      -0.07152485      -0.01850418       0.05411105
H        1.06224502       4.14417731       3.23259082       17       0.06185181      -0.02924608      -0.07656735
H        3.35351219      -0.84277289       3.22918616       18       0.17618895       0.08652633      -0.02688411
H        7.76884404       1.96206932       7.34023213       19      -0.04023921       0.01077451       0.06731442
H        7.11463528      -3.00754624       9.59381755       20       0.02551756       0.11787827      -0.20223224
H        2.69779548       4.12424748       0.97610150       21       0.03157949      -0.07846776       0.13741735
H        1.71492679       9.10790151       0.98193435       22       0.00043972      -0.03610751       0.06762467
H        6.13088064       1.97678201       9.58651689       23      -0.01678602       0.04930450      -0.05112568
H        1.49888433      -1.31051156       8.57366709       24      -0.01288082       0.02539885       0.02008000
H        5.92182722       2.42967260       1.99071633       25       0.01155750      -0.04127471       0.02188808