98
Lattice="8.60340408 0.0 0.0 -0.020742909267092442 9.706741436651134 0.0 2.3658081104548097 4.396876875212065 11.687513448775032" Properties=species:S:1:pos:R:3:spacegroup_kinds:I:1:forces:R:3 spacegroup="P 1" unit_cell=conventional occupancy="_JSON {\"0\": {\"Cd\": 1}, \"1\": {\"Cd\": 1}, \"2\": {\"H\": 1}, \"3\": {\"H\": 1}, \"4\": {\"H\": 1}, \"5\": {\"H\": 1}, \"6\": {\"H\": 1}, \"7\": {\"H\": 1}, \"8\": {\"H\": 1}, \"9\": {\"H\": 1}, \"10\": {\"H\": 1}, \"11\": {\"H\": 1}, \"12\": {\"H\": 1}, \"13\": {\"H\": 1}, \"14\": {\"H\": 1}, \"15\": {\"H\": 1}, \"16\": {\"H\": 1}, \"17\": {\"H\": 1}, \"18\": {\"H\": 1}, \"19\": {\"H\": 1}, \"20\": {\"H\": 1}, \"21\": {\"H\": 1}, \"22\": {\"H\": 1}, \"23\": {\"H\": 1}, \"24\": {\"H\": 1}, \"25\": {\"H\": 1}, \"26\": {\"H\": 1}, \"27\": {\"H\": 1}, \"28\": {\"H\": 1}, \"29\": {\"H\": 1}, \"30\": {\"H\": 1}, \"31\": {\"H\": 1}, \"32\": {\"H\": 1}, \"33\": {\"H\": 1}, \"34\": {\"H\": 1}, \"35\": {\"H\": 1}, \"36\": {\"H\": 1}, \"37\": {\"H\": 1}, \"38\": {\"H\": 1}, \"39\": {\"H\": 1}, \"40\": {\"H\": 1}, \"41\": {\"H\": 1}, \"42\": {\"C\": 1}, \"43\": {\"C\": 1}, \"44\": {\"C\": 1}, \"45\": {\"C\": 1}, \"46\": {\"C\": 1}, \"47\": {\"C\": 1}, \"48\": {\"C\": 1}, \"49\": {\"C\": 1}, \"50\": {\"C\": 1}, \"51\": {\"C\": 1}, \"52\": {\"C\": 1}, \"53\": {\"C\": 1}, \"54\": {\"C\": 1}, \"55\": {\"C\": 1}, \"56\": {\"C\": 1}, \"57\": {\"C\": 1}, \"58\": {\"C\": 1}, \"59\": {\"C\": 1}, \"60\": {\"C\": 1}, \"61\": {\"C\": 1}, \"62\": {\"C\": 1}, \"63\": {\"C\": 1}, \"64\": {\"C\": 1}, \"65\": {\"C\": 1}, \"66\": {\"C\": 1}, \"67\": {\"C\": 1}, \"68\": {\"C\": 1}, \"69\": {\"C\": 1}, \"70\": {\"C\": 1}, \"71\": {\"C\": 1}, \"72\": {\"C\": 1}, \"73\": {\"C\": 1}, \"74\": {\"C\": 1}, \"75\": {\"C\": 1}, \"76\": {\"C\": 1}, \"77\": {\"C\": 1}, \"78\": {\"C\": 1}, \"79\": {\"C\": 1}, \"80\": {\"C\": 1}, \"81\": {\"C\": 1}, \"82\": {\"C\": 1}, \"83\": {\"C\": 1}, \"84\": {\"N\": 1}, \"85\": {\"N\": 1}, \"86\": {\"N\": 1}, \"87\": {\"N\": 1}, \"88\": {\"O\": 1}, \"89\": {\"O\": 1}, \"90\": {\"O\": 1}, \"91\": {\"O\": 1}, \"92\": {\"O\": 1}, \"93\": {\"O\": 1}, \"94\": {\"O\": 1}, \"95\": {\"O\": 1}, \"96\": {\"O\": 1}, \"97\": {\"O\": 1}}" energy=-640.2595825195312 free_energy=-640.2595825195312 stress="-0.0003111394471488893 -0.00035639115958474576 -0.0008290873374789953 -0.00035639115958474576 0.0006233215681277215 -0.0002481452829670161 -0.0008290873374789953 -0.0002481452829670161 -0.0009317590738646686" pbc="T T T"
Cd       6.71835025      12.15085505       8.44154633        0      -0.03517873      -0.02618656      -0.18833478
Cd       4.22813072       1.95207962       3.24522438        1       0.02847385       0.03348820       0.17834423
H        7.34839304       3.35747920       5.76841060        2       0.01788935      -0.03465984      -0.02718443
H        3.59774536      10.74532299       5.91718897        3      -0.00407786       0.03269814       0.04736090
H        8.28446712      11.90718821       6.26836878        4       0.06974465       0.05688079      -0.04595428
H        2.66316512       2.19562899       5.41720548        5      -0.08625595      -0.00526702       0.06202541
H        2.62375754      12.04043637      10.33381950        6       0.05170655      -0.07517444      -0.02899555
H        8.32414397       2.06541398       1.35132285        7      -0.04092694       0.01194589      -0.01006900
H        8.81153673       5.62806205      11.57592246        8       0.00242336       0.02052345       0.01447639
H        2.13344237       8.47548938       0.10953759        9       0.03623836      -0.02970671      -0.00787297
H        7.69395863       7.85155150       6.61209167       10       0.02297220      -0.02623643      -0.01324917
H        3.25130314       6.25360035       5.07291384       11      -0.00952768       0.02791070       0.01403461
H        3.50596058       8.56338209       5.97346915       12      -0.02911125       0.01109091      -0.04918347
H        7.44099354       5.53996556       5.71011159       13       0.02260427       0.00242274       0.05605708
H        4.40917943      10.19866927       9.36640202       14       0.04409859      -0.04006535      -0.06963091
H        6.53713191       3.90633187       2.31978793       15      -0.06384148       0.03306483       0.00822203
H        3.31471321       9.25627508      11.39569752       16       0.00240205       0.00427999       0.03026944
H        7.63191208       4.84667682       0.28886904       17       0.02267253       0.01473081      -0.02502975
H        4.13971452       6.54470545       2.05602693       18       0.03240942       0.02293783       0.01886928
H        6.80739207       7.56028657       9.62911456       19      -0.03727157      -0.02979310      -0.01923934
H        7.49473764      11.79462670      11.61413593       20       0.01812164      -0.01400518       0.01069904
H        3.45103547       2.30938064       0.07137842       21       0.05706084       0.05558480      -0.00860105
H        2.38417659       5.23555312       3.17388580       22      -0.02988394       0.04303788       0.04615866
H        8.56225454       8.86806424       8.51090145       23       0.02932385      -0.03369849      -0.04733585
H        1.42627923       4.15535272       2.17772998       24      -0.04885584      -0.02752881       0.06518631
H        9.52106583       9.94924783       9.50870474       25       0.04151083       0.01484642      -0.07983411
H        8.52175336       6.20337113       1.61706237       26       0.04195625       0.06731521      -0.01891543
H        2.42563593       7.90303250      10.06853132       27      -0.05562855      -0.07085477      -0.00434773
H        8.36583832       5.47869057       3.22277489       28      -0.06165592       0.01503088       0.08294238
H        2.58175132       8.62528965       8.46252692       29       0.06209987      -0.00736358      -0.09494635
H        1.52777497       7.92847696       2.63619305       30       0.05862872      -0.06779803      -0.01488849
H        9.41910141       6.17541046       9.04882092       31      -0.04704815       0.07511242       0.01572540
H        1.13310881       7.28233367       4.21368597       32       0.07061310      -0.03925509       0.02858661
H        9.81347973       6.82173239       7.47168929       33      -0.05739252       0.03613641      -0.00755120
H        6.69001402       7.05517432       2.31662330       34       0.00481538       0.03138193       0.03479221
H        4.25714444       7.04944504       9.36966830       35      -0.01892429      -0.06495900      -0.05924958
H        4.85433158       8.73153551       2.44908023       36      -0.06179320      -0.07577395      -0.00132731
H        6.09333880       5.37351425       9.23556615       37       0.06059927       0.06420447       0.00235355
H        7.32542402       1.79743501       4.26125000       38      -0.04147775       0.00536996       0.06064534
H        3.62106976      12.30830181       7.42538679       39       0.03681115      -0.05469696      -0.08354397
H        9.26415324       9.95244309       4.22988090       40      -0.01173867      -0.01366930       0.01436159
H        1.68347779       4.15298405       7.45584092       41      -0.02965277      -0.00343584      -0.02962697
C        8.81092442      13.17607542       9.96387841       42       0.07887225       0.04364185       0.03397554
C        2.13547921       0.92865303       1.72130873       43      -0.07081775      -0.04121633      -0.03848919
C        9.90841150      13.64519782      10.87349326       44       0.07588252      -0.07934173      -0.05345130
C        1.03889202       0.45917233       0.81278614       45      -0.07948795       0.05592214       0.02422769
C        2.51375487      12.93659030      10.93706489       46      -0.07077331       0.07714863       0.03168842
C        8.43450547       1.16674707       0.74766691       47       0.01345737       0.04309109       0.03108525
C        9.76468107       5.10160466      11.63046281       48      -0.06972554       0.00862426      -0.00953859
C        1.18227107       9.00325282       0.05537895       49       0.05209467      -0.03782777      -0.01138260
C        5.77178895       9.73240870       6.93651715       50      -0.04454679      -0.12918457       0.02524729
C        5.17505076       4.37119009       4.74805272       51      -0.01357596       0.17932099       0.00796348
C        5.62070618       8.35467901       6.35778721       52      -0.02436487       0.03149091       0.04177320
C        5.32651400       5.74939385       5.32725216       53      -0.02873170      -0.01478882      -0.05584739
C        6.72113698       7.49038729       6.27891617       54       0.03692162      -0.02645880       0.04999539
C        4.22482826       6.61437884       5.40551151       55       0.00645059      -0.00734143      -0.04505511
C        4.36896158       7.90154964       5.91384084       56      -0.03849861      -0.04126807      -0.00904321
C        6.57816007       6.20253514       5.77121156       57       0.02641451       0.03630450      -0.00231582
C        4.83987770      10.34036258      10.35646800       58       0.02768718       0.05327802       0.02142045
C        6.10594957       3.76385977       1.32779610       59       0.06514288       0.00392714       0.05389836
C        4.23514183       9.82911859      11.49356511       60      -0.07544230      -0.02098778      -0.00648783
C        6.71151519       4.27567980       0.19083800       61       0.04721372      -0.00227232       0.01969462
C        2.42693301       5.66317732       1.07168100       62      -0.00294823       0.00117453      -0.16793624
C        8.51970781       8.44226554      10.61288203       63      -0.00488107      -0.02455106       0.17663391
C        3.64171139       6.35870939       1.10458001       64      -0.04006963       0.02136443       0.01853365
C        7.30561144       7.74527976      10.58046084       65       0.04594313      -0.01060355      -0.00186470
C        6.56361060      11.23189968      11.61099313       66      -0.02039984       0.07951313      -0.05751058
C        4.38490243       2.87272882       0.07516062       67      -0.10398200      -0.13332212      -0.00817700
C        1.70575011       5.20987376       2.31003827       68      -0.08554555       0.00309271       0.08682278
C        9.24041775       8.89475225       9.37478731       69       0.12146275       0.00198871      -0.09720536
C        9.04735350       6.04791434       2.57339237       70       0.08620383      -0.05184606      -0.03349390
C        1.89967900       8.05643056       9.11098307       71      -0.08467747       0.05831861       0.08671081
C        0.72982871       7.41459385       3.19635929       72       0.08847076      -0.03369232       0.05872984
C       10.21804785       6.68952623       8.48951854       73      -0.11872259       0.01220675      -0.09486435
C        8.15083106       8.34561214       3.26983170       74      -0.17038441       0.05212050       0.04327434
C        2.79653424       5.75706150       8.41490495       75       0.15917441       0.03857777      -0.01745492
C        6.88352548       8.02724447       2.76972823       76      -0.04274856      -0.04885262      -0.02189718
C        4.06311362       6.07730956       8.91387421       77       0.10662189       0.03948343       0.06274419
C        5.84506124       8.94454419       2.84238812       78      -0.07022980       0.03064910       0.01059937
C        5.10269846       5.15846647       8.84295527       79       0.01301867       0.08547363      -0.00737950
C        7.21699274      10.49623212       3.86604189       80       0.06659574      -0.00256175       0.01639425
C        3.72817473       3.60853362       7.81887233       81       0.01074255       0.02419329       0.01200692
C        8.29836145       9.62233527       3.83745850       82       0.01237200      -0.04085424      -0.03491970
C        2.64845405       4.48150402       7.84766132       83      -0.02812849       0.04638532       0.03132136
N        5.98246007      11.05455879      10.40719542       84      -0.02370354      -0.00593910       0.03887489
N        4.96432320       3.05115720       1.27828414       85       0.00128829      -0.02527958      -0.01537871
N        6.00270707      10.17143376       3.38033426       86       0.12280591      -0.05351543      -0.08656516
N        4.94323466       3.93462027       8.30451562       87      -0.11544825      -0.04665008       0.06159149
O        8.92598866      12.03434855       9.40355128       88      -0.10306586       0.03234538       0.01908650
O        2.02127068       2.07009296       2.28118186       89       0.09384739      -0.00263938      -0.00147854
O        7.81937390       4.22291496       9.79290173       90       0.00679459       0.06338039       0.05783740
O        3.12696162       9.88238759       1.89101466       91       0.02700387      -0.09127143      -0.04655592
O        6.93262350      10.08961820       7.34279947       92       0.07720190       0.04882738       0.00843150
O        4.01410809       4.01275510       4.34246372       93      -0.08097053      -0.03538865      -0.01208951
O        4.74312682      10.47868647       7.04614113       94      -0.05642039      -0.09336407       0.03065802
O        6.20246522       3.62596842       4.64093513       95       0.13304847       0.03678191      -0.04758622
O        8.01550425       3.10879703       6.48887021       96      -0.08593971      -0.11804840       0.22202200
O        2.93057458      10.99451164       5.19785572       97       0.08656509       0.07057539      -0.25547290
98
Lattice="8.60340408 0.0 0.0 -0.020742909267092442 9.706741436651134 0.0 2.3658081104548097 4.396876875212065 11.687513448775032" Properties=species:S:1:pos:R:3:spacegroup_kinds:I:1:forces:R:3 spacegroup="P 1" unit_cell=conventional occupancy="_JSON {\"0\": {\"Cd\": 1}, \"1\": {\"Cd\": 1}, \"2\": {\"H\": 1}, \"3\": {\"H\": 1}, \"4\": {\"H\": 1}, \"5\": {\"H\": 1}, \"6\": {\"H\": 1}, \"7\": {\"H\": 1}, \"8\": {\"H\": 1}, \"9\": {\"H\": 1}, \"10\": {\"H\": 1}, \"11\": {\"H\": 1}, \"12\": {\"H\": 1}, \"13\": {\"H\": 1}, \"14\": {\"H\": 1}, \"15\": {\"H\": 1}, \"16\": {\"H\": 1}, \"17\": {\"H\": 1}, \"18\": {\"H\": 1}, \"19\": {\"H\": 1}, \"20\": {\"H\": 1}, \"21\": {\"H\": 1}, \"22\": {\"H\": 1}, \"23\": {\"H\": 1}, \"24\": {\"H\": 1}, \"25\": {\"H\": 1}, \"26\": {\"H\": 1}, \"27\": {\"H\": 1}, \"28\": {\"H\": 1}, \"29\": {\"H\": 1}, \"30\": {\"H\": 1}, \"31\": {\"H\": 1}, \"32\": {\"H\": 1}, \"33\": {\"H\": 1}, \"34\": {\"H\": 1}, \"35\": {\"H\": 1}, \"36\": {\"H\": 1}, \"37\": {\"H\": 1}, \"38\": {\"H\": 1}, \"39\": {\"H\": 1}, \"40\": {\"H\": 1}, \"41\": {\"H\": 1}, \"42\": {\"C\": 1}, \"43\": {\"C\": 1}, \"44\": {\"C\": 1}, \"45\": {\"C\": 1}, \"46\": {\"C\": 1}, \"47\": {\"C\": 1}, \"48\": {\"C\": 1}, \"49\": {\"C\": 1}, \"50\": {\"C\": 1}, \"51\": {\"C\": 1}, \"52\": {\"C\": 1}, \"53\": {\"C\": 1}, \"54\": {\"C\": 1}, \"55\": {\"C\": 1}, \"56\": {\"C\": 1}, \"57\": {\"C\": 1}, \"58\": {\"C\": 1}, \"59\": {\"C\": 1}, \"60\": {\"C\": 1}, \"61\": {\"C\": 1}, \"62\": {\"C\": 1}, \"63\": {\"C\": 1}, \"64\": {\"C\": 1}, \"65\": {\"C\": 1}, \"66\": {\"C\": 1}, \"67\": {\"C\": 1}, \"68\": {\"C\": 1}, \"69\": {\"C\": 1}, \"70\": {\"C\": 1}, \"71\": {\"C\": 1}, \"72\": {\"C\": 1}, \"73\": {\"C\": 1}, \"74\": {\"C\": 1}, \"75\": {\"C\": 1}, \"76\": {\"C\": 1}, \"77\": {\"C\": 1}, \"78\": {\"C\": 1}, \"79\": {\"C\": 1}, \"80\": {\"C\": 1}, \"81\": {\"C\": 1}, \"82\": {\"C\": 1}, \"83\": {\"C\": 1}, \"84\": {\"N\": 1}, \"85\": {\"N\": 1}, \"86\": {\"N\": 1}, \"87\": {\"N\": 1}, \"88\": {\"O\": 1}, \"89\": {\"O\": 1}, \"90\": {\"O\": 1}, \"91\": {\"O\": 1}, \"92\": {\"O\": 1}, \"93\": {\"O\": 1}, \"94\": {\"O\": 1}, \"95\": {\"O\": 1}, \"96\": {\"O\": 1}, \"97\": {\"O\": 1}}" energy=-640.267578125 free_energy=-640.267578125 stress="0.0002229166275355965 -0.00041705762851051986 -0.0007419750327244401 -0.00041705762851051986 0.0009222680819220841 -0.00020728986419271678 -0.0007419750327244401 -0.00020728986419271678 -0.0006178233888931572" pbc="T T T"
Cd       6.71656735      12.15220690       8.43861703        0      -0.03073481      -0.02613088      -0.17321774
Cd       4.22823318       1.95418543       3.24677646        1       0.02558739       0.01868300       0.14871411
H        7.34837898       3.35717069       5.76680522        2       0.02503271      -0.03057561      -0.01071901
H        3.59779554      10.74526087       5.91742786        3      -0.04791723       0.04208392      -0.00705305
H        8.28447174      11.90801547       6.26565096        4       0.08228222       0.01775595      -0.04416242
H        2.66091863       2.19694557       5.41795588        5      -0.05475154      -0.11092552       0.02805579
H        2.62425053      12.04004369      10.33146508        6       0.04326189      -0.02950615      -0.00066750
H        8.32151813       2.06564126       1.35062523        7      -0.03838551       0.02998666       0.00130960
H        8.81024852       5.62901833      11.57515356        8       0.01355685       0.00421609       0.01065266
H        2.13325469       8.47444465       0.10782246        9       0.02229728      -0.01259148      -0.00805178
H        7.69302675       7.85199427       6.61112105       10       0.04025856      -0.02420921      -0.00869510
H        3.24982886       6.25548732       5.07078788       11       0.01662925       0.03279502       0.02007201
H        3.50409599       8.56467464       5.97066709       12      -0.00497034      -0.01397689      -0.04745882
H        7.43985265       5.54075113       5.71086379       13       0.00197701       0.01533385       0.05021509
H        4.41038489      10.19705853       9.36458155       14       0.03988532      -0.03273596      -0.05691271
H        6.53542834       3.90760084       2.31957111       15      -0.06996746       0.02693769      -0.00260070
H        3.31383857       9.25675428      11.39499096       16      -0.03192070      -0.01587507       0.02437713
H        7.63117899       4.84670443       0.28645750       17       0.06222327       0.03919169      -0.01139755
H        4.13849240       6.54545890       2.05478052       18       0.03178091       0.02097611       0.02017203
H        6.80467236       7.55984756       9.62765190       19      -0.00072838      -0.01049199       0.00523970
H        7.49372683      11.79416936      11.61370361       20       0.07061495       0.02414098      -0.00022019
H        3.45192589       2.31169512       0.07026837       21      -0.06591508      -0.02943686      -0.01085523
H        2.38194321       5.23743632       3.17292667       22      -0.02743497       0.03941206       0.04723477
H        8.56219866       8.86742211       8.50950749       23       0.01166637      -0.03686941      -0.06935478
H        1.42389170       4.15481250       2.17710722       24      -0.03230894       0.02004419       0.07044896
H        9.51979699       9.94979813       9.50579308       25       0.04268572       0.01598537      -0.08400396
H        8.52208790       6.20566473       1.61559207       26       0.03770140       0.06343968      -0.02250412
H        2.42452074       7.90235401      10.06643942       27      -0.05016869      -0.06476463       0.00992478
H        8.36433115       5.47961900       3.22312638       28      -0.02322442       0.04030234       0.03178411
H        2.58041612       8.62492351       8.46037411       29       0.07496487       0.00479241      -0.09759688
H        1.52770354       7.92714868       2.63446786       30       0.04468021      -0.06039764       0.00433384
H        9.41888055       6.17778938       9.04738157       31      -0.08269931       0.04129093       0.03531981
H        1.13349475       7.28124874       4.21344519       32       0.06531221      -0.03334418       0.03662045
H        9.81237252       6.82341766       7.47069805       33      -0.07443975       0.03685233      -0.05124030
H        6.68881683       7.05663601       2.31588770       34       0.00429800       0.01702784       0.03036261
H        4.25575223       7.04888896       9.36708325       35       0.00406099       0.00122908      -0.02634203
H        4.85310285       8.73176013       2.44733631       36      -0.08241102      -0.07181359      -0.01036482
H        6.09325123       5.37525211       9.23392456       37       0.07424241       0.05873472       0.00773954
H        7.32443816       1.79841758       4.26143897       38      -0.04965128      -0.03883585       0.03899445
H        3.62156725      12.30717819       7.42277151       39       0.02866659      -0.05110516      -0.07756899
H        9.26306461       9.95267125       4.22957848       40       0.01253027      -0.00867862       0.02237247
H        1.68314454       4.15281034       7.45458342       41      -0.04771820       0.00967293      -0.03087191
C        8.81028568      13.17755650       9.96298279       42       0.03951813       0.01595696      -0.01060200
C        2.13425629       0.92932961       1.71967342       43      -0.05957453      -0.05026583      -0.03492388
C        9.90807521      13.64551473      10.87156371       44       0.06743833      -0.05335745      -0.03313467
C        1.03717510       0.45947382       0.81114014       45      -0.06004243       0.07185417       0.03210244
C        2.51378169      12.93754864      10.93557017       46      -0.07997651       0.01121373      -0.02471919
C        8.43298143       1.16819575       0.74665383       47       0.01772488      -0.02109657      -0.00101537
C        9.76343734       5.10148031      11.62914894       48      -0.06885600       0.03773606       0.00105454
C        1.18225649       9.00356472       0.05306829       49       0.05477741      -0.01739986       0.01897725
C        5.77023467       9.73143985       6.93513368       50       0.04568022      -0.03231457       0.07903771
C        5.17261972       4.37332498       4.74598629       51       0.09663011       0.05061683      -0.02405319
C        5.62065923       8.35631642       6.35675877       52      -0.08430076      -0.04619177       0.00738600
C        5.32500816       5.75006167       5.32478256       53       0.00634301       0.00373723      -0.04409972
C        6.72077204       7.49129669       6.27765284       54       0.00181165      -0.01284435       0.04441151
C        4.22467390       6.61549112       5.40333122       55      -0.06895119      -0.02352874      -0.05986075
C        4.36736142       7.90142374       5.91242107       56       0.01253998       0.04033042       0.01575152
C        6.57655016       6.20420471       5.76928975       57       0.05438139      -0.01091720      -0.00175770
C        4.83816229      10.34113463      10.35596968       58       0.05719928       0.05641812      -0.03230622
C        6.10514662       3.76407875       1.32686686       59       0.07060809       0.03308035       0.04373235
C        4.23298221       9.82934200      11.49187797       60      -0.02405438       0.00747101       0.00680570
C        6.71147737       4.27711921       0.19005201       61       0.00487775      -0.04457074       0.03501870
C        2.42668432       5.66383857       1.06875232       62      -0.05161307      -0.02054185      -0.07747419
C        8.51988231       8.44326843      10.61296428       63      -0.01676386      -0.02301583       0.08720112
C        3.64109111       6.35934672       1.10309624       64      -0.03107281       0.03320345      -0.01607189
C        7.30543562       7.74666256      10.57875820       65      -0.01382788      -0.07099006       0.02408031
C        6.56356324      11.23365357      11.60920957       66      -0.10468432       0.01633182      -0.04092124
C        4.38316932       2.87039242       0.07306904       67       0.09532630       0.03671387      -0.00873367
C        1.70331993       5.21106682       2.30939113       68      -0.00822811      -0.06295475       0.01144040
C        9.24065578       8.89482181       9.37187776       69       0.08219092       0.03444338       0.00364280
C        9.04790999       6.04801287       2.57122070       70      -0.01697218      -0.03072494       0.05198589
C        1.89849210       8.05816509       9.10995383       71      -0.07476363      -0.01003990       0.03997415
C        0.72979406       7.41445643       3.19680612       72       0.05064994      -0.01522234       0.00116640
C       10.21553689       6.69043662       8.48710342       73       0.00963262       0.04609151      -0.04812051
C        8.14804159       8.34612521       3.26841201       74      -0.03586173       0.05809420       0.08609626
C        2.79774031       5.75925538       8.41313163       75       0.08373204      -0.01809620      -0.04311367
C        6.88238626       8.02843532       2.76864525       76      -0.09427451      -0.06061774      -0.04352224
C        4.06464496       6.07804933       8.91269286       77       0.00805641       0.05989316       0.03432369
C        5.84311430       8.94569066       2.84011861       78      -0.01600105       0.00950331       0.01835099
C        5.10263409       5.16089405       8.84215464       79       0.01648667      -0.03067280      -0.04765074
C        7.21639869      10.49612479       3.86484828       80       0.07914294       0.05856398       0.03421395
C        3.72623798       3.60746949       7.81680330       81       0.03773840       0.10636607       0.05108564
C        8.29821007       9.62340888       3.83660866       82      -0.03924564      -0.08741304      -0.06016039
C        2.64729933       4.48260243       7.84630643       83       0.00997378       0.04651850       0.03609050
N        5.98159110      11.05524594      10.40560148       84      -0.02830257      -0.00632446       0.06114256
N        4.96296782       3.05304928       1.27659882       85      -0.02300904      -0.07160191      -0.02642483
N        6.00272901      10.17154813       3.37757160       86       0.09124327      -0.01923241      -0.07084869
N        4.94056520       3.93589281       8.30377578       87      -0.08257025      -0.04370627       0.06114414
O        8.92532660      12.03570294       9.40161840       88      -0.10736607       0.05807865       0.03354383
O        2.02003867       2.07137943       2.27913723       89       0.11151990      -0.03237572      -0.00750440
O        7.81744455       4.22391669       9.79157249       90       0.04491793       0.04293007       0.07055432
O        3.12533855       9.88161877       1.88883641       91       0.00774263      -0.05486962      -0.03705323
O        6.93271923      10.09168045       7.34190814       92      -0.03651220       0.00550205      -0.03305847
O        4.01168722       4.01298330       4.34030871       93      -0.02938002      -0.00825295       0.01436598
O        4.74064805      10.47697871       7.04555232       94      -0.03932956      -0.09973077       0.02831352
O        6.20334398       3.62682736       4.63800684       95      -0.01508772       0.13209620      -0.03351724
O        8.01409058       3.10755630       6.48912032       96      -0.10957552      -0.07436775       0.19733801
O        2.93034210      10.99472583       5.19499279       97       0.10146381       0.16187303      -0.16176820
98
Lattice="8.60340408 0.0 0.0 -0.020742909267092442 9.706741436651134 0.0 2.3658081104548097 4.396876875212065 11.687513448775032" Properties=species:S:1:pos:R:3:spacegroup_kinds:I:1:forces:R:3 spacegroup="P 1" unit_cell=conventional occupancy="_JSON {\"0\": {\"Cd\": 1}, \"1\": {\"Cd\": 1}, \"2\": {\"H\": 1}, \"3\": {\"H\": 1}, \"4\": {\"H\": 1}, \"5\": {\"H\": 1}, \"6\": {\"H\": 1}, \"7\": {\"H\": 1}, \"8\": {\"H\": 1}, \"9\": {\"H\": 1}, \"10\": {\"H\": 1}, \"11\": {\"H\": 1}, \"12\": {\"H\": 1}, \"13\": {\"H\": 1}, \"14\": {\"H\": 1}, \"15\": {\"H\": 1}, \"16\": {\"H\": 1}, \"17\": {\"H\": 1}, \"18\": {\"H\": 1}, \"19\": {\"H\": 1}, \"20\": {\"H\": 1}, \"21\": {\"H\": 1}, \"22\": {\"H\": 1}, \"23\": {\"H\": 1}, \"24\": {\"H\": 1}, \"25\": {\"H\": 1}, \"26\": {\"H\": 1}, \"27\": {\"H\": 1}, \"28\": {\"H\": 1}, \"29\": {\"H\": 1}, \"30\": {\"H\": 1}, \"31\": {\"H\": 1}, \"32\": {\"H\": 1}, \"33\": {\"H\": 1}, \"34\": {\"H\": 1}, \"35\": {\"H\": 1}, \"36\": {\"H\": 1}, \"37\": {\"H\": 1}, \"38\": {\"H\": 1}, \"39\": {\"H\": 1}, \"40\": {\"H\": 1}, \"41\": {\"H\": 1}, \"42\": {\"C\": 1}, \"43\": {\"C\": 1}, \"44\": {\"C\": 1}, \"45\": {\"C\": 1}, \"46\": {\"C\": 1}, \"47\": {\"C\": 1}, \"48\": {\"C\": 1}, \"49\": {\"C\": 1}, \"50\": {\"C\": 1}, \"51\": {\"C\": 1}, \"52\": {\"C\": 1}, \"53\": {\"C\": 1}, \"54\": {\"C\": 1}, \"55\": {\"C\": 1}, \"56\": {\"C\": 1}, \"57\": {\"C\": 1}, \"58\": {\"C\": 1}, \"59\": {\"C\": 1}, \"60\": {\"C\": 1}, \"61\": {\"C\": 1}, \"62\": {\"C\": 1}, \"63\": {\"C\": 1}, \"64\": {\"C\": 1}, \"65\": {\"C\": 1}, \"66\": {\"C\": 1}, \"67\": {\"C\": 1}, \"68\": {\"C\": 1}, \"69\": {\"C\": 1}, \"70\": {\"C\": 1}, \"71\": {\"C\": 1}, \"72\": {\"C\": 1}, \"73\": {\"C\": 1}, \"74\": {\"C\": 1}, \"75\": {\"C\": 1}, \"76\": {\"C\": 1}, \"77\": {\"C\": 1}, \"78\": {\"C\": 1}, \"79\": {\"C\": 1}, \"80\": {\"C\": 1}, \"81\": {\"C\": 1}, \"82\": {\"C\": 1}, \"83\": {\"C\": 1}, \"84\": {\"N\": 1}, \"85\": {\"N\": 1}, \"86\": {\"N\": 1}, \"87\": {\"N\": 1}, \"88\": {\"O\": 1}, \"89\": {\"O\": 1}, \"90\": {\"O\": 1}, \"91\": {\"O\": 1}, \"92\": {\"O\": 1}, \"93\": {\"O\": 1}, \"94\": {\"O\": 1}, \"95\": {\"O\": 1}, \"96\": {\"O\": 1}, \"97\": {\"O\": 1}}" energy=-640.273681640625 free_energy=-640.273681640625 stress="0.0004641572304535657 -9.334205969935283e-05 -0.0007160758832469583 -9.334205969935283e-05 0.0006675477488897741 -0.00029141962295398116 -0.0007160758832469583 -0.00029141962295398116 -0.0005110857891850173" pbc="T T T"
Cd       6.71688765      12.15363552       8.43562853        0      -0.04208424      -0.02989687      -0.15977576