74
Lattice="3.84767108 0.0 0.0 -0.0001420295171628062 14.001293679279625 0.0 -0.00012891934645961533 -0.00013784973078460799 14.001050948727853" Properties=species:S:1:pos:R:3:spacegroup_kinds:I:1:forces:R:3 spacegroup="P 1" unit_cell=conventional occupancy="_JSON {\"0\": {\"Cd\": 1}, \"1\": {\"Cd\": 1}, \"2\": {\"H\": 1}, \"3\": {\"H\": 1}, \"4\": {\"H\": 1}, \"5\": {\"H\": 1}, \"6\": {\"H\": 1}, \"7\": {\"H\": 1}, \"8\": {\"H\": 1}, \"9\": {\"H\": 1}, \"10\": {\"H\": 1}, \"11\": {\"H\": 1}, \"12\": {\"H\": 1}, \"13\": {\"H\": 1}, \"14\": {\"H\": 1}, \"15\": {\"H\": 1}, \"16\": {\"H\": 1}, \"17\": {\"H\": 1}, \"18\": {\"H\": 1}, \"19\": {\"H\": 1}, \"20\": {\"H\": 1}, \"21\": {\"H\": 1}, \"22\": {\"H\": 1}, \"23\": {\"H\": 1}, \"24\": {\"H\": 1}, \"25\": {\"H\": 1}, \"26\": {\"H\": 1}, \"27\": {\"H\": 1}, \"28\": {\"H\": 1}, \"29\": {\"H\": 1}, \"30\": {\"H\": 1}, \"31\": {\"H\": 1}, \"32\": {\"H\": 1}, \"33\": {\"H\": 1}, \"34\": {\"H\": 1}, \"35\": {\"H\": 1}, \"36\": {\"H\": 1}, \"37\": {\"H\": 1}, \"38\": {\"C\": 1}, \"39\": {\"C\": 1}, \"40\": {\"C\": 1}, \"41\": {\"C\": 1}, \"42\": {\"C\": 1}, \"43\": {\"C\": 1}, \"44\": {\"C\": 1}, \"45\": {\"C\": 1}, \"46\": {\"C\": 1}, \"47\": {\"C\": 1}, \"48\": {\"C\": 1}, \"49\": {\"C\": 1}, \"50\": {\"C\": 1}, \"51\": {\"C\": 1}, \"52\": {\"C\": 1}, \"53\": {\"C\": 1}, \"54\": {\"C\": 1}, \"55\": {\"C\": 1}, \"56\": {\"C\": 1}, \"57\": {\"C\": 1}, \"58\": {\"C\": 1}, \"59\": {\"C\": 1}, \"60\": {\"C\": 1}, \"61\": {\"C\": 1}, \"62\": {\"C\": 1}, \"63\": {\"C\": 1}, \"64\": {\"C\": 1}, \"65\": {\"C\": 1}, \"66\": {\"N\": 1}, \"67\": {\"N\": 1}, \"68\": {\"N\": 1}, \"69\": {\"N\": 1}, \"70\": {\"Cl\": 1}, \"71\": {\"Cl\": 1}, \"72\": {\"Cl\": 1}, \"73\": {\"Cl\": 1}}" energy=-441.5501403808594 free_energy=-441.5501403808594 stress="0.0005998363485559821 1.4501036957881297e-06 0.0002617343852762133 1.4501036957881297e-06 -0.0041054617613554 -3.56549680873286e-05 0.0002617343852762133 -3.56549680873286e-05 -0.0035051621962338686" pbc="T T T"
Cd       1.92370985       7.00065762      -0.00001186        0       0.00534876       0.01123608       0.00218080
Cd       1.92378800      -0.00005545       7.00053524        1       0.00564568       0.01179279      -0.01714262
H        2.80281436       7.39247286       3.03915399        2      -0.02958730       0.16711226      -0.02550321
H        2.80368233       6.60566403      10.95950932        3       0.05227381       0.05855809       0.00854921
H        1.04222391       3.03673342       6.60865087        4       0.02667435       0.00101408      -0.19797809
H        1.04726375      10.96547041       7.40055338        5      -0.08480120      -0.04740851      -0.10511938
H        2.80189570       0.39375964       3.96513570        6       0.07748854      -0.05799374      -0.05221247
H        2.80427360      13.60649634      10.03458259        7       0.03454371       0.00573932       0.03083410
H        1.04861506      10.04108330       0.39498462        8      -0.01777734       0.02412781       0.05540633
H        1.04641145       3.95949223      13.60268056        9      -0.02270964       0.00644417      -0.03916970
H        1.92365427      11.39496462       4.39407196       10       0.01603284      -0.02509487       0.03008716
H        1.92389480       2.60644097       9.60697178       11      -0.01421477       0.00569570       0.02777991
H        1.92348907       4.39430109       2.60619145       12       0.01469657      -0.02812073       0.01407224
H        1.92417166       9.60693082      11.39516110       13       0.01196073      -0.00741668      -0.00256267
H        2.13940584       8.71084169       5.95993123       14      -0.03651183      -0.04221621       0.08590492
H        2.13919357       5.28336049       8.03703761       15       0.07172588      -0.01512713       0.02232750
H        1.70631028       5.96112555       5.28904541       16       0.02158795       0.04822368       0.02887953
H        1.71155260       8.03727384       8.71519770       17      -0.10772416       0.06436110       0.00622133
H        2.14275185       1.71171685       1.03375432       18       0.05989107       0.03359876       0.06872100
H        2.14404026      12.28965324      12.96160362       19      -0.08821739       0.03727473       0.10586678
H        1.70916739      12.96797362       1.70893035       20      -0.02261477       0.00398903      -0.01303058
H        1.71096821       1.03393046      12.28586096       21      -0.03112874       0.00644125       0.02674458
H        3.44531670       9.88398540       5.73167274       22       0.05927530      -0.00234269       0.04466436
H        3.45039246       4.11195176       8.27362891       23       0.06571677      -0.00647014      -0.05104438
H        0.39987556       5.73165669       4.11542554       24      -0.00638988      -0.00429507       0.09315669
H        0.40538478       8.27052649       9.88629000       25      -0.10649558      -0.05344277       0.04018350
H        3.44730489       2.88859004       1.26904668       26       0.03904752      -0.04061610      -0.01092272
H        3.44870450      11.11521086      12.73337541       27       0.04138862       0.03569368       0.02374440
H        0.40335327      12.73000038       2.88152907       28      -0.06743853       0.07347468       0.00434235
H        0.40350663       1.27462291      11.11902397       29      -0.05653778      -0.05546895      -0.01644453
H        3.66748260       8.17860023       5.23454526       30       0.05931216      -0.05665581      -0.00197929
H        3.66721895       5.82263698       8.76461412       31       0.01055367      -0.01970446      -0.00795380
H        0.17947047       5.23622407       5.82222632       32      -0.06160498      -0.01015753       0.06562402
H        0.18195165       8.76419426       8.17972041       33      -0.10298736      -0.01462439      -0.08603793
H        3.66746434       1.17864963       1.76534257       34      -0.01469477       0.06342368       0.01763019
H        3.66546670      12.82273141      12.23759346       35       0.10246301       0.07690557       0.00328211
H        0.18134300      12.23567561       1.17783131       36      -0.05698466      -0.00304163      -0.06908700
H        0.17909279       1.76368679      12.82272359       37       0.02852477       0.00103832       0.00537369
C        2.40091170       8.40188505       2.88877371       38       0.09571574       0.08852214       0.29857948
C        2.40201267       5.60438169      11.10940049       39       0.02482647      -0.47312805      -0.18369317
C        1.44316680       2.89343010       5.59679247       40      -0.08899232       0.11580557       0.02905816
C        1.44581232      11.10722526       8.40262257       41       0.02225981       0.10976977       0.16677356
C        2.40500730       1.39740753       4.10728717       42      -0.10588779       0.49408704      -0.05658344
C        2.40133273      12.60274974       9.89036078       43       0.08489093      -0.24202725       0.24098006
C        1.44890926       9.89605154       1.40169142       44      -0.10626107       0.26253277       0.16185817
C        1.44557969       4.11068195      12.59661297       45      -0.07472865      -0.31941536      -0.00975215
C        2.41776838       9.35124464       3.91564181       46       0.26404274      -0.48329884       0.18248995
C        2.42504143       4.65028073      10.08614551       47      -0.03278188       0.19059105       0.06907511
C        1.42256324       3.92003915       4.65208045       48       0.05560446      -0.18451144       0.06267917
C        1.42177432      10.08632572       9.34703356       49       0.04830685      -0.11270291       0.08761107
C        2.42363608       2.35463302       3.08387241       50       0.13490216      -0.54219639       0.07210308
C        2.42504177      11.65318359      10.91856586       51       0.01161744       0.10711286      -0.07037003
C        1.42596359      10.92156521       2.35105438       52       0.02882839      -0.15426368      -0.18595596
C        1.42667688       3.08044919      11.65341218       53      -0.06506863       0.13058814       0.18606715
C        1.92617675      10.62021147       3.62737957       54      -0.19169694       0.29114777      -0.26609290
C        1.91907418       3.37466590      10.38137797       55       0.17523912       0.19518515      -0.12236739
C        1.92762512       3.62198781       3.37691044       56      -0.16415116       0.24262859       0.19102791
C        1.92812115      10.37702674      10.62411651       57      -0.05850551       0.16749159      -0.17068130
C        2.95479766       9.00854972       5.28400391       58      -0.12772809       0.18488528      -0.15974852
C        2.95709375       4.98621636       8.71923508       59      -0.13989316      -0.02769141      -0.00273979
C        0.89279136       5.27990893       4.99266552       60      -0.01287463       0.15747966      -0.24905917
C        0.89077851       8.71968433       9.01121763       61       0.28853470      -0.05195817       0.08404043
C        2.95445957       2.01507122       1.72253331       62      -0.01938345       0.00186833      -0.23482755
C        2.95638653      11.99090454      12.28491011       63      -0.03585967      -0.18821670      -0.08677083
C        0.89548056      12.28431752       2.00632943       64       0.11057523       0.03270364       0.19725168
C        0.89773113       1.72066955      11.99310786       65      -0.02657036      -0.15863030      -0.04820196
N        1.92427657       8.67095867       1.66673421       66       0.02360158      -0.36686891      -0.33657104
N        1.92699579       5.33088493      12.33714677       67       0.03887133       0.48835343       0.13079885
N        1.92264455       1.66680399       5.33265364       68       0.05061584      -0.29734239       0.15609187
N        1.92638031      12.33693870       8.66581824       69      -0.06190806       0.11087680      -0.26342461
Cl       3.85151624       5.69416212       1.30810122       70      -0.00422437       0.03840955      -0.04070729
Cl       3.85105134       8.31492149      12.69235146       71      -0.00395628      -0.05690647       0.04874766
Cl       0.00408224       1.31053432       8.30774041       72      -0.00983783      -0.04508279      -0.03944528
Cl       0.00230363      12.68891892       5.69166296       73      -0.00385362       0.04825507       0.04637112
74
Lattice="3.84767108 0.0 0.0 -0.0001420295171628062 14.001293679279625 0.0 -0.00012891934645961533 -0.00013784973078460799 14.001050948727853" Properties=species:S:1:pos:R:3:spacegroup_kinds:I:1:forces:R:3 spacegroup="P 1" unit_cell=conventional occupancy="_JSON {\"0\": {\"Cd\": 1}, \"1\": {\"Cd\": 1}, \"2\": {\"H\": 1}, \"3\": {\"H\": 1}, \"4\": {\"H\": 1}, \"5\": {\"H\": 1}, \"6\": {\"H\": 1}, \"7\": {\"H\": 1}, \"8\": {\"H\": 1}, \"9\": {\"H\": 1}, \"10\": {\"H\": 1}, \"11\": {\"H\": 1}, \"12\": {\"H\": 1}, \"13\": {\"H\": 1}, \"14\": {\"H\": 1}, \"15\": {\"H\": 1}, \"16\": {\"H\": 1}, \"17\": {\"H\": 1}, \"18\": {\"H\": 1}, \"19\": {\"H\": 1}, \"20\": {\"H\": 1}, \"21\": {\"H\": 1}, \"22\": {\"H\": 1}, \"23\": {\"H\": 1}, \"24\": {\"H\": 1}, \"25\": {\"H\": 1}, \"26\": {\"H\": 1}, \"27\": {\"H\": 1}, \"28\": {\"H\": 1}, \"29\": {\"H\": 1}, \"30\": {\"H\": 1}, \"31\": {\"H\": 1}, \"32\": {\"H\": 1}, \"33\": {\"H\": 1}, \"34\": {\"H\": 1}, \"35\": {\"H\": 1}, \"36\": {\"H\": 1}, \"37\": {\"H\": 1}, \"38\": {\"C\": 1}, \"39\": {\"C\": 1}, \"40\": {\"C\": 1}, \"41\": {\"C\": 1}, \"42\": {\"C\": 1}, \"43\": {\"C\": 1}, \"44\": {\"C\": 1}, \"45\": {\"C\": 1}, \"46\": {\"C\": 1}, \"47\": {\"C\": 1}, \"48\": {\"C\": 1}, \"49\": {\"C\": 1}, \"50\": {\"C\": 1}, \"51\": {\"C\": 1}, \"52\": {\"C\": 1}, \"53\": {\"C\": 1}, \"54\": {\"C\": 1}, \"55\": {\"C\": 1}, \"56\": {\"C\": 1}, \"57\": {\"C\": 1}, \"58\": {\"C\": 1}, \"59\": {\"C\": 1}, \"60\": {\"C\": 1}, \"61\": {\"C\": 1}, \"62\": {\"C\": 1}, \"63\": {\"C\": 1}, \"64\": {\"C\": 1}, \"65\": {\"C\": 1}, \"66\": {\"N\": 1}, \"67\": {\"N\": 1}, \"68\": {\"N\": 1}, \"69\": {\"N\": 1}, \"70\": {\"Cl\": 1}, \"71\": {\"Cl\": 1}, \"72\": {\"Cl\": 1}, \"73\": {\"Cl\": 1}}" energy=-441.5227355957031 free_energy=-441.5227355957031 stress="0.0005707688396796584 9.94704314507544e-05 0.0008017898653633893 9.94704314507544e-05 -0.005186771973967552 0.0003634988679550588 0.0008017898653633893 0.0003634988679550588 -0.0034621607046574354" pbc="T T T"
Cd       1.92376944       7.00029534      -0.00159463        0      -0.00298449      -0.00086829      -0.01216836
Cd       1.92274419       0.00207332       7.00205947        1       0.00656408       0.02353678      -0.02952317
H        2.79859339       7.38880039       3.04033031        2      -0.04061197       0.26097012      -0.04083583
H        2.79985616       6.60277596      10.96293085        3       0.03367367       0.01675896      -0.00728671
H        1.04313831       3.03237284       6.60825946        4       0.01005188       0.01497101      -0.12133124
H        1.04955335      10.96728148       7.40494909        5      -0.18039924      -0.08645317      -0.37390611
H        2.80261234       0.39063981       3.96792969        6       0.03655196       0.06424385      -0.04960676
H        2.80737985      13.60619404      10.03470620        7       0.00485192      -0.10814306       0.03530266
H        1.04388450      10.04347871       0.39609953        8       0.04075992       0.00902164       0.15482032
H        1.04240679       3.95497728      13.60045017        9      -0.00860447       0.05136754       0.02189860
H        1.92164172      11.39201393       4.39789520       10       0.01541367       0.06157579       0.11396423
H        1.92136468       2.60721214       9.60537029       11       0.01156862       0.05511850       0.05884270
H        1.92084414       4.39383612       2.60898376       12       0.01935031      -0.01893905       0.02404816
H        1.92329828       9.60509086      11.39595236       13      -0.00310243       0.00625189       0.01057994
H        2.14338374       8.71228126       5.96420910       14      -0.01593431      -0.02605627       0.04027462
H        2.13594630       5.27867856       8.03967688       15       0.13408194      -0.00780657       0.07333516
H        1.70360331       5.96428698       5.28408832       16       0.17389190       0.15310201       0.12802956
H        1.71582847       8.04024359       8.71862560       17      -0.11019949       0.01538973      -0.01011327
H        2.13861772       1.70925628       1.03744433       18       0.16255520       0.08342645       0.12716314
H        2.14289862      12.28887866      12.95788605       19      -0.15738422       0.07072610       0.18861276
H        1.70930014      12.96572896       1.70741011       20      -0.11759414      -0.05016962       0.02378443
H        1.70649757       1.03800744      12.28867032       21       0.09578370      -0.05807166       0.05335582
H        3.44662289       9.88392764       5.73518269       22       0.08974965       0.08154607       0.03355220
H        3.44726639       4.11466607       8.27090616       23       0.12790409      -0.10829820      -0.05730312
H        0.40316207       5.73176965       4.11689073       24      -0.00111749      -0.01824331       0.09344553
H        0.40061786       8.26605879       9.88892147       25      -0.03978739       0.00029233      -0.02588826
H        3.44769833       2.88780372       1.26690963       26       0.09129117       0.08577825      -0.07720423
H        3.44871108      11.11273543      12.73057337       27       0.00612332       0.07846328       0.00816989
H        0.40451892      12.72537876       2.88307320       28      -0.11765487       0.11681747       0.05403372
H        0.40837110       1.27362057      11.12390895       29      -0.09690578      -0.07677571      -0.05273806
H        3.66737772       8.18328810       5.23491095       30       0.10248026      -0.09498863      -0.00534157
H        3.66992975       5.82574799       8.76758092       31      -0.11920065      -0.16577865      -0.01714937
H        0.17457474       5.23235815       5.81737256       32      -0.02069002       0.02500471       0.08633641
H        0.18093255       8.76222763       8.18207382       33      -0.09540514      -0.03605267      -0.10480133
H        3.67166723       1.18012645       1.76121238       34      -0.05333541       0.11077247       0.02802336
H        3.66718123      12.82279350      12.23309600       35       0.02766484       0.00446835       0.03397533
H        0.18186075      12.23323788       1.17792869       36      -0.12508585       0.00637088      -0.11309874
H        0.18309371       1.76187680      12.82665339       37       0.00648124       0.03387647       0.00007059
C        2.40373539       8.40363162       2.88576690       38       0.02734448      -0.12867942       0.18527307
C        2.39713873       5.59986645      11.10992929       39       0.15048745      -0.26797122      -0.25509650
C        1.44745914       2.89157858       5.60016223       40      -0.15728863       0.25161979      -0.08504578
C        1.44887718      11.10675437       8.39787542       41       0.10148641       0.27497429       0.45820004
C        2.40777563       1.39951541       4.10838291       42      -0.04227411       0.36574489      -0.17555088
C        2.40490263      12.59783347       9.89279910       43       0.01229714       0.14334455      -0.13668120
C        1.45324414       9.89701873       1.40341523       44      -0.27143931       0.25023580      -0.08578110
C        1.44806899       4.11557089      12.59998815       45      -0.23578340      -0.93949389      -0.27670527
C        2.41492683       9.34981734       3.91111002       46       0.35455734      -0.28750756       0.41686115
C        2.42237449       4.64817963      10.08883260       47       0.10045151       0.32631171      -0.07451291
C        1.42481831       3.91681388       4.65360310       48       0.01654484       0.05507548       0.21528105
C        1.42271775      10.08886676       9.34363051       49       0.03403845      -0.29276651       0.31836963
C        2.42815935       2.35818674       3.08690889       50       0.20566116      -0.62396324      -0.05630046
C        2.42151530      11.65616942      10.91548613       51       0.06898988      -0.17493257       0.27366489
C        1.42330188      10.92514492       2.34827945       52       0.22157736      -0.37158534       0.15203102
C        1.42224006       3.07603289      11.65046168       53       0.13026293       0.67238897       0.36293110
C        1.92592961      10.62310517       3.63094718       54      -0.28414309       0.14147583      -0.62727803
C        1.92247022       3.37685258      10.38113308       55      -0.04094626      -0.18894404      -0.04023425
C        1.93027789       3.62344730       3.38155340       56      -0.14669085       0.23006852       0.07302567
C        1.92416597      10.37778395      10.62803441       57      -0.10152484       0.19706404      -0.45231873
C        2.95695155       9.01302462       5.28456303       58      -0.27196094       0.07645887      -0.23641697
C        2.95748523       4.98291917       8.72283363       59      -0.16046271       0.24613059      -0.03732350
C        0.89721948       5.28295122       4.99589139       60      -0.20604241      -0.10135022      -0.39030260
C        0.89039809       8.71546525       9.01263285       61       0.28113845       0.09271616       0.15110208
C        2.95843693       2.01911333       1.72077321       62      -0.18529147      -0.19685915      -0.13563113
C        2.95355758      11.99065077      12.28545410       63       0.13498758      -0.16396233      -0.22791590
C        0.89120242      12.28147958       2.00740079       64       0.27377644       0.18435736       0.09177254
C        0.89964774       1.72522524      11.99517640       65      -0.17991740      -0.30963600      -0.03603423
N        1.92026332       8.66633526       1.66193736       66       0.12136501      -0.22621846      -0.14244872
N        1.92773253       5.32649752      12.33611025       67       0.05103238       0.73458618       0.28154498
N        1.92141291       1.66915333       5.32905344       68       0.09947324      -0.48766348       0.32445472
N        1.92374274      12.34066840       8.66420770       69       0.01273060      -0.02228341      -0.14669184
Cl       3.84845239       5.69020556       1.30496121       70       0.00016309       0.04666817      -0.03815049
Cl       3.84628765       8.31806269      12.69243457       71       0.00233993      -0.06938084       0.05118106
Cl       0.00284080       1.31379697       8.31114777       72      -0.00804838      -0.05049146      -0.04521008
Cl       0.00040092      12.69336703       5.68950115       73       0.00031298       0.04126289       0.05261505
74
Lattice="3.84767108 0.0 0.0 -0.0001420295171628062 14.001293679279625 0.0 -0.00012891934645961533 -0.00013784973078460799 14.001050948727853" Properties=species:S:1:pos:R:3:spacegroup_kinds:I:1:forces:R:3 spacegroup="P 1" unit_cell=conventional occupancy="_JSON {\"0\": {\"Cd\": 1}, \"1\": {\"Cd\": 1}, \"2\": {\"H\": 1}, \"3\": {\"H\": 1}, \"4\": {\"H\": 1}, \"5\": {\"H\": 1}, \"6\": {\"H\": 1}, \"7\": {\"H\": 1}, \"8\": {\"H\": 1}, \"9\": {\"H\": 1}, \"10\": {\"H\": 1}, \"11\": {\"H\": 1}, \"12\": {\"H\": 1}, \"13\": {\"H\": 1}, \"14\": {\"H\": 1}, \"15\": {\"H\": 1}, \"16\": {\"H\": 1}, \"17\": {\"H\": 1}, \"18\": {\"H\": 1}, \"19\": {\"H\": 1}, \"20\": {\"H\": 1}, \"21\": {\"H\": 1}, \"22\": {\"H\": 1}, \"23\": {\"H\": 1}, \"24\": {\"H\": 1}, \"25\": {\"H\": 1}, \"26\": {\"H\": 1}, \"27\": {\"H\": 1}, \"28\": {\"H\": 1}, \"29\": {\"H\": 1}, \"30\": {\"H\": 1}, \"31\": {\"H\": 1}, \"32\": {\"H\": 1}, \"33\": {\"H\": 1}, \"34\": {\"H\": 1}, \"35\": {\"H\": 1}, \"36\": {\"H\": 1}, \"37\": {\"H\": 1}, \"38\": {\"C\": 1}, \"39\": {\"C\": 1}, \"40\": {\"C\": 1}, \"41\": {\"C\": 1}, \"42\": {\"C\": 1}, \"43\": {\"C\": 1}, \"44\": {\"C\": 1}, \"45\": {\"C\": 1}, \"46\": {\"C\": 1}, \"47\": {\"C\": 1}, \"48\": {\"C\": 1}, \"49\": {\"C\": 1}, \"50\": {\"C\": 1}, \"51\": {\"C\": 1}, \"52\": {\"C\": 1}, \"53\": {\"C\": 1}, \"54\": {\"C\": 1}, \"55\": {\"C\": 1}, \"56\": {\"C\": 1}, \"57\": {\"C\": 1}, \"58\": {\"C\": 1}, \"59\": {\"C\": 1}, \"60\": {\"C\": 1}, \"61\": {\"C\": 1}, \"62\": {\"C\": 1}, \"63\": {\"C\": 1}, \"64\": {\"C\": 1}, \"65\": {\"C\": 1}, \"66\": {\"N\": 1}, \"67\": {\"N\": 1}, \"68\": {\"N\": 1}, \"69\": {\"N\": 1}, \"70\": {\"Cl\": 1}, \"71\": {\"Cl\": 1}, \"72\": {\"Cl\": 1}, \"73\": {\"Cl\": 1}}" energy=-441.4931945800781 free_energy=-441.4931945800781 stress="-0.0003676972119137645 0.0003962897462770343 0.0009187586256302893 0.0003962897462770343 -0.0057091438211500645 -0.00018618875765241683 0.0009187586256302893 -0.00018618875765241683 -0.003847629763185978" pbc="T T T"
Cd       1.92243635       7.00041016      -0.00255281        0      -0.00539362       0.01520542       0.00130163
Cd       1.92128221       0.00073223       7.00566010        1       0.01337371       0.04689611      -0.06853525
H        2.79914097       7.38876180       3.04476369        2      -0.00829364       0.17002749      -0.04442118
H        2.79621201       6.59850330      10.96450870        3       0.11934614       0.18489210      -0.04016755
H        1.04687153       3.03542267       6.61043912        4      -0.01326445      -0.01686142      -0.06357792
H        1.05068609      10.96512771       7.40288056        5      -0.10956426      -0.03574276      -0.21906126
H        2.80054123       0.38947544       3.96601146        6       0.00282546       0.16758247      -0.02065120
H        2.80275464      13.60978824      10.03757403        7      -0.01002158      -0.14294799       0.03040353
H        1.04109545      10.04243530       0.39728033        8       0.07102236      -0.03570226       0.24197987
H        1.03756220       3.95209454      13.60133960        9      -0.01604465       0.07719797       0.05939035
H        1.92143080      11.38997310       4.39511789       10       0.03273236       0.19617619       0.24489273
H        1.92103135       2.60439141       9.60833155       11       0.01162985       0.03266312       0.01699249
H        1.91888145       4.38925646       2.61275247       12       0.02306466       0.13273777      -0.16535723
H        1.92497881       9.60443002      11.39686677       13      -0.00431235       0.09152055      -0.05284174
H        2.14767944       8.71380351       5.96834145       14      -0.06968480      -0.05899502       0.04724795
H        2.13846538       5.27680101       8.04223127       15      -0.03671920       0.03544466      -0.06815875
H        1.70159203       5.96471719       5.27927712       16       0.33356830       0.29462603       0.20985676
H        1.71365757       8.03656902       8.72028243       17      -0.03189340      -0.03798291      -0.03205435
H        2.13994507       1.70431652       1.04251259       18       0.15790054       0.12201760       0.10784164
H        2.14508147      12.28567017      12.95349115       19      -0.35600567       0.16631345       0.36491069
H        1.70687422      12.96823500       1.70421472       20      -0.01950074      -0.01422904      -0.00140566
H        1.70365569       1.03512640      12.29371701       21       0.15136111      -0.06313404       0.04512897
H        3.45144267       9.88134168       5.73974698       22       0.00030790      -0.04603621      -0.07577579
H        3.45125372       4.11587801       8.27491317       23       0.11492313      -0.10468021      -0.07845107
H        0.40229716       5.73249957       4.11382207       24       0.07542412      -0.06941082       0.25157365
H        0.39696463       8.26737496       9.88511669       25      -0.07702732      -0.06097631       0.07163571
H        3.44957464       2.88665995       1.26555728       26       0.13282019       0.19000953      -0.12601824
H        3.44376187      11.11167602      12.72661292       27       0.04119339       0.04273164       0.05428354
H        0.40759484      12.72513043       2.87886430       28      -0.13439023       0.13149902       0.07471704
H        0.41008515       1.27825219      11.12577266       29      -0.14730167      -0.16618839      -0.18635222
H        3.66356640       8.18830753       5.23201618       30       0.26643795      -0.32005447      -0.02195052
H        3.66684752       5.82838065       8.76748144       31      -0.13339569      -0.18151520      -0.04058320
H        0.17475171       5.23327465       5.81514021       32      -0.06733610       0.03089462       0.17724963
H        0.18137022       8.76673434       8.18135279       33      -0.02091589      -0.07136843      -0.03700083
H        3.66790035       1.18350650       1.75737001       34       0.09010335      -0.01440217       0.04534882
H        3.67038329      12.82184240      12.22825777       35      -0.05510373      -0.06935312       0.05945793
H        0.18327738      12.23268687       1.17398174       36      -0.09260291       0.02710272      -0.07154288
H        0.17936179       1.76692812      12.82327714       37       0.10901301       0.00220383      -0.10147271
C        2.40448811       8.39970382       2.88735401       38      -0.02854339       0.02429080       0.16192925
C        2.40072247       5.59860610      11.10968451       39       0.01933809      -0.32595289      -0.08383606
C        1.44587920       2.88917055       5.60330055       40      -0.10203813       0.58269596      -0.40080059
C        1.44958694      11.10942108       8.40090183       41      -0.02110716       0.05154328       0.33896619
C        2.40739689       1.40262212       4.10901110       42       0.09759174       0.10287675      -0.28883529
C        2.40007352      12.60085292       9.89115550       43       0.11605968       0.10846421       0.19311617
C        1.44892562       9.89228091       1.40837153       44      -0.32520127       0.35828704      -0.31214160
C        1.44379009       4.11851088      12.60347603       45      -0.18712713      -0.92942619      -0.47119838
C        2.41258709       9.34830706       3.90914550       46       0.37463468      -0.18050590       0.53602970
C        2.42596517       4.65116212      10.09032045       47      -0.01455864       0.04129326      -0.16524525
C        1.42400918       3.92153928       4.65222122       48       0.05364344      -0.23522082       0.35702413
C        1.42008088      10.08640575       9.34602026       49       0.09873386      -0.11604522       0.17551573
C        2.43109467       2.35708277       3.09169187       50       0.22378662      -0.45395112      -0.39540178
C        2.41769137      11.65258107      10.91359851       51       0.18052992       0.20977758       0.36929753
C        1.41867250      10.92520717       2.34459090       52       0.39551061      -0.40034103       0.44353038
C        1.41742091       3.07887994      11.64908785       53       0.22847608       0.65974522       0.41589901
C        1.92843190      10.62628236       3.63112199       54      -0.36542231      -0.09928828      -0.92270315
C        1.92051695       3.37498897      10.38076057       55       0.03055050       0.07345901       0.00950851
C        1.92819502       3.62297120       3.37892282       56      -0.15974249       0.12087578       0.39014077
C        1.92248007      10.38113790      10.62805539       57      -0.16421014      -0.14953294      -0.35307556
C        2.95578762       9.00897566       5.28266752       58      -0.29885116       0.46712753      -0.14755273
C        2.95474997       4.98396121       8.71968235       59       0.07011969       0.22281370       0.19159949
C        0.89990773       5.28586097       5.00050637       60      -0.42014834      -0.15567137      -0.75983751