80
Lattice="10.87960844 0.0 0.0 1.0812954936092616 15.813811275020816 0.0 0.451569397609888 1.3947661101221382 17.216165772475936" Properties=species:S:1:pos:R:3:spacegroup_kinds:I:1:forces:R:3 spacegroup="P 1" unit_cell=conventional occupancy="_JSON {\"0\": {\"Zn\": 1}, \"1\": {\"Zn\": 1}, \"2\": {\"H\": 1}, \"3\": {\"H\": 1}, \"4\": {\"H\": 1}, \"5\": {\"H\": 1}, \"6\": {\"H\": 1}, \"7\": {\"H\": 1}, \"8\": {\"H\": 1}, \"9\": {\"H\": 1}, \"10\": {\"H\": 1}, \"11\": {\"H\": 1}, \"12\": {\"H\": 1}, \"13\": {\"H\": 1}, \"14\": {\"H\": 1}, \"15\": {\"H\": 1}, \"16\": {\"H\": 1}, \"17\": {\"H\": 1}, \"18\": {\"H\": 1}, \"19\": {\"H\": 1}, \"20\": {\"H\": 1}, \"21\": {\"H\": 1}, \"22\": {\"H\": 1}, \"23\": {\"H\": 1}, \"24\": {\"C\": 1}, \"25\": {\"C\": 1}, \"26\": {\"C\": 1}, \"27\": {\"C\": 1}, \"28\": {\"C\": 1}, \"29\": {\"C\": 1}, \"30\": {\"C\": 1}, \"31\": {\"C\": 1}, \"32\": {\"C\": 1}, \"33\": {\"C\": 1}, \"34\": {\"C\": 1}, \"35\": {\"C\": 1}, \"36\": {\"C\": 1}, \"37\": {\"C\": 1}, \"38\": {\"C\": 1}, \"39\": {\"C\": 1}, \"40\": {\"C\": 1}, \"41\": {\"C\": 1}, \"42\": {\"C\": 1}, \"43\": {\"C\": 1}, \"44\": {\"C\": 1}, \"45\": {\"C\": 1}, \"46\": {\"C\": 1}, \"47\": {\"C\": 1}, \"48\": {\"C\": 1}, \"49\": {\"C\": 1}, \"50\": {\"C\": 1}, \"51\": {\"C\": 1}, \"52\": {\"C\": 1}, \"53\": {\"C\": 1}, \"54\": {\"C\": 1}, \"55\": {\"C\": 1}, \"56\": {\"C\": 1}, \"57\": {\"C\": 1}, \"58\": {\"C\": 1}, \"59\": {\"C\": 1}, \"60\": {\"C\": 1}, \"61\": {\"C\": 1}, \"62\": {\"N\": 1}, \"63\": {\"N\": 1}, \"64\": {\"N\": 1}, \"65\": {\"N\": 1}, \"66\": {\"N\": 1}, \"67\": {\"N\": 1}, \"68\": {\"O\": 1}, \"69\": {\"O\": 1}, \"70\": {\"O\": 1}, \"71\": {\"O\": 1}, \"72\": {\"O\": 1}, \"73\": {\"O\": 1}, \"74\": {\"O\": 1}, \"75\": {\"O\": 1}, \"76\": {\"O\": 1}, \"77\": {\"O\": 1}, \"78\": {\"O\": 1}, \"79\": {\"O\": 1}}" energy=-553.830810546875 free_energy=-553.830810546875 stress="-0.0005697852466255426 3.262008249294013e-05 -2.8642605684581213e-05 3.262008249294013e-05 -0.0008907575393095613 -0.0003406139148864895 -2.8642605684581213e-05 -0.0003406139148864895 0.00021947328059468418" pbc="T T T"
Zn       6.23352253       9.98893378       8.63090337        0       0.03707537      -0.03795473       0.02089460
Zn       6.17430582       7.21949865       8.58407742        1       0.02866126       0.06447402      -0.02453291
H        1.68556771       7.61215838       6.56210140        2      -0.07187378       0.04848650       0.08927779
H        7.59094378       7.17440363       1.80216459        3      -0.07720281       0.01400591       0.00759152
H        4.18769138       9.81448854       1.84590873        4      -0.04194821       0.00896890      -0.03907593
H        8.22886952       7.39837104      15.36758694        5      -0.03215525       0.02806795       0.03580620
H        7.46830776       5.11695667       6.94311323        6      -0.04907287      -0.05488435       0.07842527
H        4.94599454      12.09267546      10.27367678        7      -0.05477843      -0.05104067       0.03984690
H        1.46330821      10.95709761       8.74021372        8       0.03398304       0.00006238       0.02020562
H       10.94528002       6.25172209       8.47278589        9      -0.01408631       0.04237185      -0.00521736
H        4.00767341      10.11626578       5.58592758       10       0.10534206       0.01261226       0.06503404
H        8.40100313       7.08893927      11.62785544       11      -0.08562808      -0.02818844      -0.07449627
H        7.63346631      12.13965549       7.11890013       12      -0.09147245       0.04024282       0.10035183
H       10.72787771       9.59319923      10.65354888       13       0.06236256      -0.04394572      -0.07980670
H        4.77848267       5.06670405      10.10107856       14       0.07821590      -0.02647039      -0.07092307
H        7.36136394      15.67452897       6.22500677       15       0.13082495       0.09920374       0.18804537
H        5.05262102       1.53057428      10.99114092       16      -0.12442145      -0.08163638      -0.18270068
H        7.57059229       2.58231281       6.88990769       17      -0.02892042      -0.01457223       0.05969457
H        4.84265543      14.62933070      10.32857270       18       0.05077575       0.02467655      -0.09029947
H       10.77252173       9.82357220       6.67160553       19       0.00514071       0.03157558      -0.03246424
H        1.64152993       7.38190210      10.54510700       20      -0.07106905       0.05233325      -0.09249637
H        4.67031238       9.85498960      12.91477265       21      -0.01646918       0.03333309      -0.00434261
H        7.74101124       7.35231989       4.30050707       22       0.00485364      -0.03422660      -0.01058443
H        4.82240360      10.03891743      15.40984818       23       0.07580809      -0.00974146       0.00564494
C        6.17221096       8.70172981       5.96408507       24      -0.01169311      -0.13959600      -0.09488189
C        7.04248003      12.72760409       7.82954197       25       0.28429824       0.20642187      -0.20367578
C        5.34295373       3.08185938       9.43851015       26       0.02604036       0.25469741       0.31698599
C        7.06739669      14.12732581       7.77455053       27       0.01764822      -0.34366083      -0.26054123
C        6.14008832       2.39423140       8.50095498       28      -0.04849294      -0.41751501       0.24381024
C        6.27227506      14.81339198       8.71240226       29       0.02568659       0.54461598      -0.16110499
C        6.94002959       3.11260426       7.60411935       30      -0.00096827       0.10166393       0.01510875
C        5.47182544      14.10020798       9.61109230       31      -0.04290218      -0.38019603       0.05406842
C        6.88665454       4.49864900       7.63162762       32       0.06016190       0.02663377      -0.13127758
C        5.52317003      12.70744504       9.58755466       33       0.02047229       0.44219649       0.01073273
C        8.80773062       8.50261424       8.58824339       34       0.02322450      -0.18681352       0.09512787
C        6.24418007       8.51085311      11.25016730       35      -0.01526111       0.07115403       0.07441038
C        3.60511391       8.70634761       8.62937714       36      -0.02666226       0.04214057      -0.07627054
C       11.17711767       9.28708558       7.53100169       37       0.07366648      -0.15280610      -0.03230286
C        1.23612393       7.92390240       9.68271319       38      -0.00619239      -0.03557533       0.22746837
C        1.25914453       8.04976222       7.47189989       39      -0.07727224       0.04921043      -0.25762796
C       11.15205696       9.15621263       9.74288797       40       0.08775666       0.02644378       0.27439642
C        2.12044785       8.69156383       8.62808578       41       0.29770851      -0.06377497       0.05079328
C       10.29205011       8.51248481       8.59083113       42      -0.32495821       0.19272323      -0.14783850
C        1.14560566       9.91471021       8.68650565       43      -0.07333758       0.00168943      -0.04722621
C       11.26396188       7.29537325       8.52812977       44       0.09882298      -0.14103663       0.02727640
C        6.05679307       8.67833928       4.46540986       45       0.02997847       0.00175360       0.19537240
C        5.85510846       8.45472045       1.67708755       46      -0.08031851       0.18533000       0.12143391
C        6.35984760       8.53016416      12.74801375       47      -0.10308060       0.06842658      -0.05623710
C        6.96580841       7.88431296       3.74940890       48      -0.03795408       0.04041754      -0.13151181
C        5.44402691       9.32128339      13.46529925       49       0.17326997      -0.06677091       0.08335644
C        6.88294424       7.78176621       2.36878634       50       0.15714382      -0.17345116       0.07126914
C        5.53021725       9.42952322      14.84574338       51      -0.22951615       0.14162666      -0.10562313
C        4.04088145      10.21935805       4.47945036       52      -0.05709545       0.09902178      -0.27935803
C        8.37508880       6.98763283      12.73398039       53       0.01608050      -0.05923140       0.45344076
C        7.83984818      14.77442823       6.67832013       54      -0.27503771      -0.33235526       0.22638105
C        4.57703949       2.43239992      10.53935512       55      -0.08981231       0.49721086      -0.15144029
C        6.55328208       8.75311319      15.53662058       56       0.16935331      -0.09324157       0.17499830
C        4.97207925       9.28124042       2.38071286       57       0.09617791      -0.05358918       0.10653882
C        7.43783703       7.92962597      14.83574366       58       0.06655829      -0.05525896      -0.05738139
C        5.06071321       9.39899297       3.77550696       59      -0.20822480       0.13055971      -0.06402633
C        7.35561054       7.81026173      13.44328155       60       0.14085966      -0.11081481      -0.18147568
C        5.36955399       4.48112756       9.39020624       61      -0.25346386      -0.12387872       0.08796075
N        5.64107827       8.35913199       0.28835910       62      -0.13328932       0.07469201       0.19625908
N        6.77381073       8.85267318      16.93254307       63       0.07008338      -0.11779325      -0.43777800
N        6.10859556       5.16522067       8.50989406       64       0.08752897       0.01641625      -0.07576117
N        6.30105009      12.04861223       8.70844964       65      -0.06899737      -0.26240605       0.08081096
N        6.19053089       0.99086498       8.40715055       66       0.14295363       0.30898485      -0.44589216
N        6.22545283      16.21858682       8.81256135       67      -0.15188926      -0.35666859       0.39720196
O        6.19542740       9.83281004       6.54406035       68      -0.06877768       0.06516546      -0.03271452
O        9.15818552       6.24797245      13.31889538       69      -0.10285087       0.20636563      -0.19811735
O        8.87135966      14.31202089       6.22657309       70       0.17869578      -0.01160176      -0.23722085
O        3.53932847       2.89606798      10.99115297       71       0.17712082      -0.14142206       0.10659273
O        6.21623992       7.37895414      10.67131157       72       0.08633143      -0.05391300       0.03774267
O        6.23364473       7.55938497       6.52223322       73       0.02594999      -0.02597263       0.02243790
O        6.18019876       9.65198744      10.69000944       74      -0.01498665       0.03722394       0.01008666
O        8.23737156       9.64097720       8.61040905       75      -0.10862132       0.26529014      -0.06345214
O        4.17939923       7.56741314       8.60946075       76       0.01462808      -0.17345102       0.04998692
O        8.21325698       7.37359985       8.59000510       77      -0.03246570      -0.15418634      -0.02656615
O        4.19703938       9.83483479       8.62743229       78       0.04448474       0.20802462       0.01305450
O        3.25755734      10.96250890       3.90040302       79       0.09749164      -0.19687425       0.12832034
80
Lattice="10.87960844 0.0 0.0 1.0812954936092616 15.813811275020816 0.0 0.451569397609888 1.3947661101221382 17.216165772475936" Properties=species:S:1:pos:R:3:spacegroup_kinds:I:1:forces:R:3 spacegroup="P 1" unit_cell=conventional occupancy="_JSON {\"0\": {\"Zn\": 1}, \"1\": {\"Zn\": 1}, \"2\": {\"H\": 1}, \"3\": {\"H\": 1}, \"4\": {\"H\": 1}, \"5\": {\"H\": 1}, \"6\": {\"H\": 1}, \"7\": {\"H\": 1}, \"8\": {\"H\": 1}, \"9\": {\"H\": 1}, \"10\": {\"H\": 1}, \"11\": {\"H\": 1}, \"12\": {\"H\": 1}, \"13\": {\"H\": 1}, \"14\": {\"H\": 1}, \"15\": {\"H\": 1}, \"16\": {\"H\": 1}, \"17\": {\"H\": 1}, \"18\": {\"H\": 1}, \"19\": {\"H\": 1}, \"20\": {\"H\": 1}, \"21\": {\"H\": 1}, \"22\": {\"H\": 1}, \"23\": {\"H\": 1}, \"24\": {\"C\": 1}, \"25\": {\"C\": 1}, \"26\": {\"C\": 1}, \"27\": {\"C\": 1}, \"28\": {\"C\": 1}, \"29\": {\"C\": 1}, \"30\": {\"C\": 1}, \"31\": {\"C\": 1}, \"32\": {\"C\": 1}, \"33\": {\"C\": 1}, \"34\": {\"C\": 1}, \"35\": {\"C\": 1}, \"36\": {\"C\": 1}, \"37\": {\"C\": 1}, \"38\": {\"C\": 1}, \"39\": {\"C\": 1}, \"40\": {\"C\": 1}, \"41\": {\"C\": 1}, \"42\": {\"C\": 1}, \"43\": {\"C\": 1}, \"44\": {\"C\": 1}, \"45\": {\"C\": 1}, \"46\": {\"C\": 1}, \"47\": {\"C\": 1}, \"48\": {\"C\": 1}, \"49\": {\"C\": 1}, \"50\": {\"C\": 1}, \"51\": {\"C\": 1}, \"52\": {\"C\": 1}, \"53\": {\"C\": 1}, \"54\": {\"C\": 1}, \"55\": {\"C\": 1}, \"56\": {\"C\": 1}, \"57\": {\"C\": 1}, \"58\": {\"C\": 1}, \"59\": {\"C\": 1}, \"60\": {\"C\": 1}, \"61\": {\"C\": 1}, \"62\": {\"N\": 1}, \"63\": {\"N\": 1}, \"64\": {\"N\": 1}, \"65\": {\"N\": 1}, \"66\": {\"N\": 1}, \"67\": {\"N\": 1}, \"68\": {\"O\": 1}, \"69\": {\"O\": 1}, \"70\": {\"O\": 1}, \"71\": {\"O\": 1}, \"72\": {\"O\": 1}, \"73\": {\"O\": 1}, \"74\": {\"O\": 1}, \"75\": {\"O\": 1}, \"76\": {\"O\": 1}, \"77\": {\"O\": 1}, \"78\": {\"O\": 1}, \"79\": {\"O\": 1}}" energy=-553.82080078125 free_energy=-553.82080078125 stress="-0.0005090308841317892 -5.616175985778682e-05 2.5187120627379045e-05 -5.616175985778682e-05 -0.0006684082909487188 -0.0003615821769926697 2.5187120627379045e-05 -0.0003615821769926697 0.00034665066050365567" pbc="T T T"
Zn       6.23562147       9.98893044       8.63357089        0       0.02699931      -0.02708328       0.00870012
Zn       6.17227162       7.22223727       8.58301520        1       0.03673841       0.04167263      -0.01369136
H        1.68538508       7.61270333       6.56033705        2      -0.07635957       0.05830494       0.11517210
H        7.59105654       7.17348851       1.80032561        3      -0.10178252       0.02956310       0.03094613
H        4.18959452       9.81189109       1.84348482        4      -0.15778428       0.09632884      -0.07696071
H        8.22629631       7.39896181      15.36795054        5       0.03372924      -0.01531920       0.08285171
H        7.46883267       5.11905224       6.94510566        6      -0.01774979      -0.03690565       0.03763185
H        4.94352710      12.09134429      10.27147863        7      -0.03025290      -0.02453618       0.01494705
H        1.46444815      10.95956715       8.73864486        8       0.00816356      -0.07278101       0.02561557
H       10.94762640       6.25157004       8.47157395        9       0.00223630       0.08512826       0.00195251
H        4.00979291      10.11610732       5.58447238       10       0.10220228       0.01772032       0.04389759
H        8.40324922       7.08959125      11.62846994       11      -0.09315339      -0.01781223      -0.08156405
H        7.63433128      12.13720871       7.12179731       12      -0.07425702       0.06127822       0.08006210
H       10.72775890       9.59308146      10.65257678       13       0.03450624      -0.02552635      -0.04474235
H        4.77914921       5.06857007      10.10247259       14       0.07539525      -0.04465359      -0.07249941
H        7.35936259      15.67490052       6.22272741       15       0.15257955       0.01859483       0.24478094
H        5.05511731       1.53280490      10.99400846       16      -0.15247348      -0.03738962      -0.20837121
H        7.57143607       2.58150549       6.89269524       17       0.03109010      -0.06134703      -0.01563855
H        4.84554753      14.63209970      10.33053270       18       0.04266653       0.01553646      -0.10332651
H       10.77002231       9.82105765       6.66907225       19       0.02356660       0.01156704       0.00882144
H        1.64205139       7.38271720      10.54495091       20      -0.07609147       0.04430179      -0.06573170
H        4.66956386       9.85796998      12.91239889       21       0.12308587      -0.07741410       0.10815014
H        7.74190663       7.35040736       4.29767931       22      -0.04877865       0.00581512      -0.03841373
H        4.82244567      10.03905016      15.41247036       23       0.06037663       0.00312956       0.01395786
C        6.17387138       8.70238817       5.96556294       24      -0.04002557      -0.18975230      -0.03356290
C        7.04449807      12.73035860       7.82871547       25       0.28495803       0.00974542      -0.17080730
C        5.34376615       3.08045933       9.43630999       26      -0.04009249       0.37946481       0.35477018
C        7.07036636      14.12668300       7.77273609       27      -0.14354439      -0.27502438      -0.11165759
C        6.13963231       2.39365488       8.49871897       28      -0.02513764      -0.34644625       0.26133204
C        6.26964506      14.81089462       8.71052332       29       0.12923127       0.69942117      -0.20475699
C        6.94135661       3.11110481       7.60291933       30      -0.07650949       0.25658703       0.08279794
C        5.47029027      14.10087003       9.61043816       31      -0.04718732      -0.38966966       0.05397217
C        6.88742949       4.49979532       7.63038825       32       0.01862793      -0.06666884      -0.04171330
C        5.52135352      12.70830899       9.58586264       33       0.06748769       0.34188163      -0.01314662
C        8.80966243       8.50143259       8.58768440       34      -0.19366670      -0.04422722       0.08277073
C        6.24160201       8.50916781      11.24811831       35       0.03982658       0.18157008       0.24634078
C        3.60553162       8.70746947       8.63049005       36      -0.03654450      -0.17129204      -0.08124501
C       11.17500036       9.28414583       7.52999397       37       0.11302960      -0.06670928      -0.03238249
C        1.23389662       7.92516851       9.68512579       38       0.02924311      -0.04574645       0.17241430
C        1.26045801       8.05138730       7.47129610       39      -0.07693562       0.01342982      -0.23501337
C       11.15056717       9.15685581       9.74274863       40       0.09965000       0.01795262       0.25044477
C        2.12079607       8.69015197       8.63008935       41       0.26976752      -0.00317701       0.03343916
C       10.29049814       8.50969304       8.58895588       42      -0.23802733       0.25326124      -0.11733140
C        1.14537670       9.91487237       8.68912962       43      -0.08781084       0.01839876      -0.12077948
C       11.26558210       7.29705591       8.52913019       44       0.05746886      -0.26418006       0.00361133
C        6.05833483       8.67903589       4.46708527       45       0.04252496      -0.01365998       0.18313374
C        5.85372278       8.45404200       1.67413954       46      -0.13295311       0.25622389       0.27171129
C        6.36043308       8.53226053      12.74855207       47      -0.07253228      -0.03535216      -0.08870661
C        6.96417377       7.88516782       3.74832644       48       0.05940831      -0.03795741      -0.12308447
C        5.44522823       9.31842866      13.46775898       49      -0.05920190       0.15164305      -0.02838992
C        6.88145380       7.78074659       2.36708910       50       0.14497018      -0.15252256       0.07074383
C        5.52920671       9.43049209      14.84792654       51      -0.13211069       0.05754149      -0.13798934
C        4.04369010      10.21980876       4.47715110       52      -0.13194764       0.16369274      -0.19651404
C        8.37592718       6.98655602      12.73428596       53      -0.06930891       0.00198019       0.43942648
C        7.83711847      14.77217022       6.68077830       54      -0.18780994      -0.16863233       0.04552865
C        4.57737220       2.43345070      10.53697643       55      -0.19255154       0.47332931      -0.05024967
C        6.55540189       8.75266787      15.53559675       56       0.02940524       0.01684964       0.29057169
C        4.96954573       9.28355735       2.38049567       57       0.35447896      -0.25665516       0.15181601
C        7.43738245       7.92978320      14.83820051       58       0.06656618      -0.08630428      -0.22588348
C        5.06316392       9.39927993       3.77768433       59      -0.28369886       0.17486422      -0.23786265
C        7.35361256       7.80950345      13.44467295       60       0.21444443      -0.12753820      -0.19991308
C        5.36814017       4.48110702       9.39132075       61      -0.12909532      -0.09900162      -0.02560616
N        5.64145759       8.35738212       0.28621501       62      -0.25040591       0.22496134       0.27133593
N        6.77309828       8.85357258      16.93336360       63       0.19027302      -0.27294225      -0.55716860
N        6.11127402       5.16712865       8.51110566       64       0.01302544      -0.09225893      -0.03388282
N        6.30345445      12.04886148       8.70728721       65      -0.15600857      -0.16478592       0.14383741
N        6.18955817       0.99291332       8.40991718       66       0.20264354       0.19938779      -0.50146520
N        6.22428590      16.22021575       8.81044715       67      -0.22270980      -0.47272694       0.41090006
O        6.19538881       9.83437125       6.54543441       68      -0.05762182      -0.00244868      -0.04985088
O        9.15770470       6.24521190      13.31629612       69      -0.06241232       0.16935533      -0.14622077
O        8.87073140      14.31443922       6.22684416       70       0.15509763      -0.02019969      -0.21738367
O        3.53698650       2.89673700      10.98882010       71       0.31189513      -0.19441217       0.04093986
O        6.21433875       7.37794664      10.67374958       72       0.07348900      -0.12931508      -0.04173788
O        6.23072381       7.55777411       6.52472468       73       0.03738240       0.10039802      -0.05310240
O        6.18157466       9.65186631      10.69016323       74      -0.03801786       0.02386612      -0.02714654
O        8.23744509       9.64390782       8.61006906       75       0.02006716       0.06944907      -0.06175508
O        4.18052117       7.56474029       8.61123093       76      -0.06025322      -0.00224751       0.06064252
O        8.21075413       7.37420163       8.58764090       77       0.01019575      -0.11701524      -0.01283024
O        4.19408219       9.83519125       8.62553319       78       0.12661079       0.25743246       0.02091114
O        3.25885658      10.96502252       3.90063099       79       0.15770128      -0.25199255       0.13920170
80
Lattice="10.87960844 0.0 0.0 1.0812954936092616 15.813811275020816 0.0 0.451569397609888 1.3947661101221382 17.216165772475936" Properties=species:S:1:pos:R:3:spacegroup_kinds:I:1:forces:R:3 spacegroup="P 1" unit_cell=conventional occupancy="_JSON {\"0\": {\"Zn\": 1}, \"1\": {\"Zn\": 1}, \"2\": {\"H\": 1}, \"3\": {\"H\": 1}, \"4\": {\"H\": 1}, \"5\": {\"H\": 1}, \"6\": {\"H\": 1}, \"7\": {\"H\": 1}, \"8\": {\"H\": 1}, \"9\": {\"H\": 1}, \"10\": {\"H\": 1}, \"11\": {\"H\": 1}, \"12\": {\"H\": 1}, \"13\": {\"H\": 1}, \"14\": {\"H\": 1}, \"15\": {\"H\": 1}, \"16\": {\"H\": 1}, \"17\": {\"H\": 1}, \"18\": {\"H\": 1}, \"19\": {\"H\": 1}, \"20\": {\"H\": 1}, \"21\": {\"H\": 1}, \"22\": {\"H\": 1}, \"23\": {\"H\": 1}, \"24\": {\"C\": 1}, \"25\": {\"C\": 1}, \"26\": {\"C\": 1}, \"27\": {\"C\": 1}, \"28\": {\"C\": 1}, \"29\": {\"C\": 1}, \"30\": {\"C\": 1}, \"31\": {\"C\": 1}, \"32\": {\"C\": 1}, \"33\": {\"C\": 1}, \"34\": {\"C\": 1}, \"35\": {\"C\": 1}, \"36\": {\"C\": 1}, \"37\": {\"C\": 1}, \"38\": {\"C\": 1}, \"39\": {\"C\": 1}, \"40\": {\"C\": 1}, \"41\": {\"C\": 1}, \"42\": {\"C\": 1}, \"43\": {\"C\": 1}, \"44\": {\"C\": 1}, \"45\": {\"C\": 1}, \"46\": {\"C\": 1}, \"47\": {\"C\": 1}, \"48\": {\"C\": 1}, \"49\": {\"C\": 1}, \"50\": {\"C\": 1}, \"51\": {\"C\": 1}, \"52\": {\"C\": 1}, \"53\": {\"C\": 1}, \"54\": {\"C\": 1}, \"55\": {\"C\": 1}, \"56\": {\"C\": 1}, \"57\": {\"C\": 1}, \"58\": {\"C\": 1}, \"59\": {\"C\": 1}, \"60\": {\"C\": 1}, \"61\": {\"C\": 1}, \"62\": {\"N\": 1}, \"63\": {\"N\": 1}, \"64\": {\"N\": 1}, \"65\": {\"N\": 1}, \"66\": {\"N\": 1}, \"67\": {\"N\": 1}, \"68\": {\"O\": 1}, \"69\": {\"O\": 1}, \"70\": {\"O\": 1}, \"71\": {\"O\": 1}, \"72\": {\"O\": 1}, \"73\": {\"O\": 1}, \"74\": {\"O\": 1}, \"75\": {\"O\": 1}, \"76\": {\"O\": 1}, \"77\": {\"O\": 1}, \"78\": {\"O\": 1}, \"79\": {\"O\": 1}}" energy=-553.8056640625 free_energy=-553.8056640625 stress="-0.0005264860228635371 -7.91174461483024e-05 -0.00015319079102482647 -7.91174461483024e-05 -0.0006707865395583212 -0.00021694143651984632 -0.00015319079102482647 -0.00021694143651984632 0.00023094036441762" pbc="T T T"
Zn       6.23496534       9.98992767       8.63433204        0       0.05630369      -0.02497271       0.00736130
Zn       6.16955462       7.22035396       8.58270544        1       0.06419532       0.06715736      -0.00639124
H        1.68354752       7.61418989       6.56005049        2      -0.04837080       0.03198486       0.08773838
H        7.58899563       7.17102165       1.80265820        3      -0.05250371      -0.00551101      -0.01880885
H        4.19203736       9.81263336       1.84080319        4      -0.19944160       0.10693371      -0.09533265
H        8.22803193       7.39642794      15.36507527        5       0.02477230      -0.00468542       0.08116594
H        7.46594837       5.11857303       6.94527230        6       0.04678051       0.05546695      -0.04892569
H        4.94497463      12.08932265      10.26952688        7      -0.06025790      -0.05327038       0.06774156
H        1.46528479      10.96097253       8.73822576        8      -0.01347095      -0.12058051       0.02177799
H       10.94607591       6.25138579       8.47142039        9      -0.00483163       0.07253782       0.00629407
H        4.00856191      10.11707064       5.58579676       10       0.12682185       0.00918339      -0.02672034
H        8.40420578       7.08849456      11.62930808       11      -0.08658884      -0.02090059      -0.11914133
H        7.63480273      12.13778192       7.12441408       12      -0.02166549      -0.01818655      -0.00819199
H       10.72540773       9.59551989      10.65396863       13       0.07489538      -0.06269792      -0.13370749
H        4.77784738       5.06882223      10.10230458       14       0.04299153      -0.01675352      -0.02134082
H        7.36192890      15.67571701       6.22263887       15       0.14930372       0.05705853       0.23342150
H        5.05330661       1.53119105      10.99154338       16      -0.10505825      -0.10763517      -0.17144689
H        7.56856732       2.57871220       6.89311210       17       0.07388094      -0.05788311      -0.06301960
H        4.84339552      14.63459523      10.32838518       18       0.14218977      -0.06762502      -0.20306970
H       10.76928748       9.82199940       6.66934319       19       0.02657059       0.01795731      -0.00414540
H        1.64318525       7.38412961      10.54703491       20      -0.10749047       0.07856681      -0.13443696
H        4.66958674       9.85672982      12.91412560       21       0.11539099      -0.05214298       0.09159858
H        7.74386664       7.34835810       4.29490073       22      -0.08034270       0.03594815      -0.04555730
H        4.82480665      10.04145318      15.41168154       23       0.02869774       0.00483845       0.02691726
C        6.17462366       8.70329467       5.96659272       24      -0.02585871      -0.10160363       0.02131277
C        7.04310767      12.72759842       7.82649238       25       0.28239322       0.33568186      -0.13949999
C        5.34548047       3.07934476       9.43341982       26      -0.13711967       0.48242775       0.52499032
C        7.06933843      14.12899557       7.76994894       27      -0.10573521      -0.47005188      -0.08692780
C        6.14125909       2.39563780       8.49875757       28      -0.00485507      -0.46633470       0.15808520
C        6.27126817      14.80881669       8.71176454       29       0.18807711       0.73537004      -0.32080138
C        6.94257550       3.11359377       7.60057902       30      -0.16036883       0.21428283       0.16678882
C        5.47283164      14.09869255       9.60789055       31      -0.23501366      -0.30710500       0.29957435
C        6.88643216       4.50189381       7.62758343       32      -0.07757899      -0.14138901       0.11004236
C        5.52338516      12.70721691       9.58858690       33       0.09229505       0.39751583      -0.12502660
C        8.80767061       8.49909741       8.59021491       34       0.01992649       0.15912378       0.02335270
C        6.24059224       8.51060858      11.24520991       35       0.08084077       0.10566916       0.43220031
C        3.60373908       8.70948256       8.63211831       36       0.11052352      -0.17219277      -0.13349554
C       11.17736023       9.28698226       7.52947861       37       0.04765978      -0.17492133      -0.03818142
C        1.23193891       7.92401200       9.68359038       38       0.08931464      -0.00969934       0.28204393
C        1.26293259       8.05031407       7.47250367       39      -0.17017025       0.07619077      -0.24481523
C       11.15004796       9.15975048       9.74074979       40       0.05622289      -0.01333869       0.37602890
C        2.11866969       8.69255694       8.62738852       41       0.35710466      -0.08184379       0.11406840
C       10.29252074       8.50950201       8.58907148       42      -0.38339484       0.28446600      -0.13250607
C        1.14263815       9.91559705       8.68804225       43       0.00120556       0.13497186      -0.11326419
C       11.26334228       7.29637134       8.53107918       44       0.11947095      -0.23137414      -0.05152325
C        6.06008720       8.68203653       4.46770565       45       0.01753961      -0.07514837       0.11652583
C        5.85524026       8.45239802       1.67215218       46      -0.20814824       0.33323684       0.36525881