88
Lattice="9.23213013 0.0 0.0 4.908688698559445e-06 9.837255869998776 0.0 -1.104148142601199 4.777223433229213e-06 10.686104741469574" Properties=species:S:1:pos:R:3:spacegroup_kinds:I:1:forces:R:3 spacegroup="P 1" unit_cell=conventional occupancy="_JSON {\"0\": {\"Zn\": 1}, \"1\": {\"Zn\": 1}, \"2\": {\"Zn\": 1}, \"3\": {\"Zn\": 1}, \"4\": {\"H\": 1}, \"5\": {\"H\": 1}, \"6\": {\"H\": 1}, \"7\": {\"H\": 1}, \"8\": {\"H\": 1}, \"9\": {\"H\": 1}, \"10\": {\"H\": 1}, \"11\": {\"H\": 1}, \"12\": {\"H\": 1}, \"13\": {\"H\": 1}, \"14\": {\"H\": 1}, \"15\": {\"H\": 1}, \"16\": {\"H\": 1}, \"17\": {\"H\": 1}, \"18\": {\"H\": 1}, \"19\": {\"H\": 1}, \"20\": {\"H\": 1}, \"21\": {\"H\": 1}, \"22\": {\"H\": 1}, \"23\": {\"H\": 1}, \"24\": {\"H\": 1}, \"25\": {\"H\": 1}, \"26\": {\"H\": 1}, \"27\": {\"H\": 1}, \"28\": {\"C\": 1}, \"29\": {\"C\": 1}, \"30\": {\"C\": 1}, \"31\": {\"C\": 1}, \"32\": {\"C\": 1}, \"33\": {\"C\": 1}, \"34\": {\"C\": 1}, \"35\": {\"C\": 1}, \"36\": {\"C\": 1}, \"37\": {\"C\": 1}, \"38\": {\"C\": 1}, \"39\": {\"C\": 1}, \"40\": {\"C\": 1}, \"41\": {\"C\": 1}, \"42\": {\"C\": 1}, \"43\": {\"C\": 1}, \"44\": {\"C\": 1}, \"45\": {\"C\": 1}, \"46\": {\"C\": 1}, \"47\": {\"C\": 1}, \"48\": {\"C\": 1}, \"49\": {\"C\": 1}, \"50\": {\"C\": 1}, \"51\": {\"C\": 1}, \"52\": {\"C\": 1}, \"53\": {\"C\": 1}, \"54\": {\"C\": 1}, \"55\": {\"C\": 1}, \"56\": {\"C\": 1}, \"57\": {\"C\": 1}, \"58\": {\"C\": 1}, \"59\": {\"C\": 1}, \"60\": {\"C\": 1}, \"61\": {\"C\": 1}, \"62\": {\"C\": 1}, \"63\": {\"C\": 1}, \"64\": {\"C\": 1}, \"65\": {\"C\": 1}, \"66\": {\"C\": 1}, \"67\": {\"C\": 1}, \"68\": {\"N\": 1}, \"69\": {\"N\": 1}, \"70\": {\"N\": 1}, \"71\": {\"N\": 1}, \"72\": {\"N\": 1}, \"73\": {\"N\": 1}, \"74\": {\"N\": 1}, \"75\": {\"N\": 1}, \"76\": {\"N\": 1}, \"77\": {\"N\": 1}, \"78\": {\"N\": 1}, \"79\": {\"N\": 1}, \"80\": {\"O\": 1}, \"81\": {\"O\": 1}, \"82\": {\"O\": 1}, \"83\": {\"O\": 1}, \"84\": {\"O\": 1}, \"85\": {\"O\": 1}, \"86\": {\"O\": 1}, \"87\": {\"O\": 1}}" energy=-613.5145874023438 free_energy=-613.5145874023438 stress="-0.0049925255589187145 -0.0009621928329579532 -0.0004425021761562675 -0.0009621928329579532 -0.00030187913216650486 -0.004166551399976015 -0.0004425021761562675 -0.004166551399976015 -0.0001302461459999904" pbc="T T T"
Zn       7.07559119       2.66465959       1.52270017        0      -0.03630380       0.09456520      -0.09300750
Zn       5.71835219       7.57886575       9.18949138        1      -0.00990148      -0.11772586      -0.39441034
Zn       1.13693435       7.12202272       9.17316990        2      -0.15588391      -0.05796061       0.15826470
Zn       2.40395265       2.19067420       1.52070384        3       0.44386929       0.48768440       0.03787798
H        8.13486922       9.16907600       7.23246986        4      -0.03164533      -0.61453438      -0.04331939
H        4.66412587       4.21522941       3.47587364        5       0.06936066       0.68996006      -0.70816070
H        0.01261837       0.68664744       3.41280553        6      -0.15638345       0.23895156       0.38112199
H        3.52884867       5.54973295       7.20526470        7      -0.11700308       0.24118185      -0.08691423
H        0.22410084       1.27355360       6.57880128        8       2.15573072      -0.34082076      -3.08304501
H        3.29887987       6.19820254       4.12380652        9      -0.19032302      -0.12055899       0.00088136
H        7.91820000       8.49752141       4.13791204       10      -0.53779531       0.23164867       0.76896876
H        4.84912573       3.58359454       6.54206402       11       0.14522819       0.07351564       0.29390794
H        0.20093119       3.39354343       7.80296539       12       0.12391271       0.06433254      -0.18007329
H        3.32712575       8.30464164       2.86785905       13       0.60362017      -0.42950904      -0.25270179
H        7.92072695       6.42674431       2.85200409       14      -0.68731368      -0.68552941       0.49001241
H        4.82006507       1.48982373       7.83548146       15       0.47553331      -0.49831861      -0.22533338
H        7.95557473       3.65512781       9.81479960       16       0.27630386       0.04519751      -0.22308803
H        4.74934641       8.59738006       0.87019612       17       0.26009813      -0.49917662      -0.09559138
H        0.13619203       6.17382429       0.83628074       18       0.01498857      -1.46203947      -0.86521482
H        3.38882596       1.21316489       9.84902839       19      -0.08827025      -0.18321797       0.03296184
H        6.48324481       0.20038322       4.94467388       20       1.15690970       0.22245274      -0.12861665
H        6.25510812       5.10877424       5.77158406       21       0.77955288      -0.04515483      -0.17860392
H        1.64928366       9.63603418       5.75293516       22       0.65108126      -0.12298936       0.06763775
H        1.89327095       4.68460398       4.93297323       23       0.85677123      -0.03714127      -0.04074607
H        2.49509816       1.20186264       3.87912403       24      -0.37987965      -0.10314871      -0.12770550
H        1.07080836       6.11619264       6.84352205       25      -0.45492366      -0.63882107      -0.63445771
H        5.69598017       8.62720005       6.85966640       26      -0.13692865       0.20058239      -0.26353267
H        7.03513180       3.70366784       3.89078660       27       0.80920082       0.25854498       0.07778040
C        7.31566721       0.39019594       8.98697825       28      -0.20969132      -0.11478800      -1.01957500
C        5.48749185       5.28669053       1.76049881       29       1.53913879       1.29988074      -2.68229294
C        0.90040680       9.39698799       1.71257334       30      -1.82548344       0.60676032       2.95532179
C        2.66542430       4.47916969       8.91491225       31      -0.18128705      -0.82586455       0.33580437
C        8.12300830       0.21845185       7.83584975       32      -0.03201378       1.48345745      -0.02824219
C        4.71182404       5.13978729       2.84532775       33      -2.35882998       0.16133371       2.91118145
C        0.03998802       9.56772270       2.92204987       34       2.25242090      -0.34703994      -2.93742752
C        3.44791460       4.62808697       7.76471002       35       0.55371189      -0.33802393       0.39317235
C       -0.36347594       1.33417283       7.38723759       36      -2.47509480       0.14175667       4.09436989
C        3.89334743       6.25501931       3.21663953       37       1.23883593      -0.56505358      -0.07828669
C        8.55042559       8.46133245       3.27997729       38      -0.55097455      -0.54977655       0.02894858
C        4.26112446       3.55674414       7.46682896       39      -0.03991580      -1.64828062      -0.46344119
C       -0.38575044       2.54202133       8.12302763       40      -0.46123794      -0.11172055       0.27859220
C        3.98486439       7.47371983       2.53518220       41      -0.59629971       0.07545079      -0.44897386
C        8.51415435       7.25608371       2.57108187       42       2.93082666       0.14469208      -3.15094471
C        4.21872769       2.29908368       8.18554418       43       0.13355576       1.73954773      -1.03987908
C        8.03927731       2.71205519       9.26685669       44       0.87342775       1.10171890      -0.43373066
C        4.77485447       7.61487735       1.36867019       45      -0.98459542       1.00550187       0.79434276
C        0.15120166       7.06693859       1.37580943       46      -2.17012787       1.90610051       3.55071068
C        3.40437793       2.13249347       9.27398695       47      -0.50648576       0.47577012       0.76800287
C        7.29558918       1.65039156       9.68111276       48      -1.12817788      -2.92684555       0.43681616
C        5.52118738       6.51895457       0.97657769       49      -0.38911253      -0.62569153       0.73237956
C        0.92265333       8.16887037       1.03910338       50       0.33331963       0.10209727      -1.55747461
C        2.62898502       3.24961202       9.63457476       51      -0.49962053       0.34057221       1.08026290
C        5.10731095       1.45853379       3.12081350       52      -2.51984835       1.14778912      -2.48418260
C        7.70960716       6.40422847       7.61114904       53      -2.73136139      -0.77109843      -2.29558659
C        3.09237931       8.30615795       7.57615881       54       1.19329655      -0.60209137       1.79638147
C        0.45012751       3.39293006       3.04738373       55       0.82389462       1.56419134       3.81978822
C        4.55150609       0.71097363       4.20941412       56      -0.11451263      -1.15528536       2.53300834
C        8.21512117       5.63270410       6.45688156       57       1.41093612       0.04181814      -0.60401392
C        3.63534335       9.04472189       6.38035362       58      -0.34285140      -0.83759362       1.62232637
C       -0.03581002       4.14353400       4.28247098       59      -1.14695001      -0.81152725      -1.45924747
C        5.44950264       0.11686625       5.14932090       60      -0.91424370      -0.26420256      -0.71694928
C        7.34956881       5.02123719       5.57806953       61      -1.26213419      -1.24143696      -1.11034942
C        2.73866222       9.69523530       5.55691593       62      -1.65373838       0.23403326      -0.49005625
C        0.85581378       4.76984028       5.15501249       63      -0.25777721      -0.07032890      -0.54172117
C        3.16135992       0.59358356       4.47107208       64       1.24174666       0.55075377      -0.36518198
C        0.38337962       5.52549728       6.18571545       65      -0.28808835       1.18414617       1.82395267
C        5.00700904       9.16239420       6.19671750       66       0.31347772       0.16426167      -0.12641998
C        7.81559771       4.22949590       4.47330850       67      -0.86716771       1.06784844       1.61006618
N        7.51130378       1.42411110       0.04852727       68       0.31400433       0.34972122      -0.22269644
N        5.28898665       6.33117048      10.63543914       69       0.40669304      -0.83226502       0.51597238
N        0.66624706       8.36402078      10.62036407       70       0.42872483       1.02837968       1.68282771
N        2.82206305       3.49761640       0.04800364       71       2.26542139      -3.19832373      -1.70135689
N        5.91472132       0.20438032      10.67859530       72      -0.43063432      -0.46144399      -1.01372814
N        6.92004403       5.10142520       0.06552345       73      -0.18558455       0.01713704       0.32303211
N        2.30952476       9.59779818       0.06860622       74      -0.00430752      -0.56775177      -1.23134685
N        1.28081588       4.66287779      10.62095451       75      -1.33174157       3.55146456      -0.24540290
N        6.36829687       9.38928173       9.55266627       76       1.14889550       1.54527330       1.41980004
N        6.38930091       4.47739863       1.14354011       77       0.50355232      -0.28591219      -0.77706993
N        1.76534564       0.41391996       1.09217639       78      -0.34579504      -1.03294134      -0.03437781
N        1.81980849       5.32572890       9.54242633       79      -0.79459602      -0.03380242       0.96403432
O        6.33897078       1.73374524       3.09356522       80       0.83482087      -0.10336687       0.12489507
O        6.41378344       6.63657470       7.58581056       81       0.79147816      -0.12964873       0.17193234
O        1.83324259       8.10578284       7.65311965       82      -0.10868818       0.39859331      -0.92606044
O        1.68266366       3.14706485       3.08600192       83       2.25473595      -0.31066057      -0.05444708
O        4.28382432       1.85217070       2.16448143       84       1.82029581      -0.38778564       1.02551770
O       -0.80959022       6.78644440       8.51922257       85       1.90267920       1.02987480       2.51734257
O        3.83945414       7.89763963       8.58300937       86      -1.19375741       0.77810985      -1.88226867
O        8.97648838       3.02798963       2.13220453       87      -2.44676948      -0.97945613      -2.87294340
88
Lattice="9.23213013 0.0 0.0 4.908688698559445e-06 9.837255869998776 0.0 -1.104148142601199 4.777223433229213e-06 10.686104741469574" Properties=species:S:1:pos:R:3:spacegroup_kinds:I:1:forces:R:3 spacegroup="P 1" unit_cell=conventional occupancy="_JSON {\"0\": {\"Zn\": 1}, \"1\": {\"Zn\": 1}, \"2\": {\"Zn\": 1}, \"3\": {\"Zn\": 1}, \"4\": {\"H\": 1}, \"5\": {\"H\": 1}, \"6\": {\"H\": 1}, \"7\": {\"H\": 1}, \"8\": {\"H\": 1}, \"9\": {\"H\": 1}, \"10\": {\"H\": 1}, \"11\": {\"H\": 1}, \"12\": {\"H\": 1}, \"13\": {\"H\": 1}, \"14\": {\"H\": 1}, \"15\": {\"H\": 1}, \"16\": {\"H\": 1}, \"17\": {\"H\": 1}, \"18\": {\"H\": 1}, \"19\": {\"H\": 1}, \"20\": {\"H\": 1}, \"21\": {\"H\": 1}, \"22\": {\"H\": 1}, \"23\": {\"H\": 1}, \"24\": {\"H\": 1}, \"25\": {\"H\": 1}, \"26\": {\"H\": 1}, \"27\": {\"H\": 1}, \"28\": {\"C\": 1}, \"29\": {\"C\": 1}, \"30\": {\"C\": 1}, \"31\": {\"C\": 1}, \"32\": {\"C\": 1}, \"33\": {\"C\": 1}, \"34\": {\"C\": 1}, \"35\": {\"C\": 1}, \"36\": {\"C\": 1}, \"37\": {\"C\": 1}, \"38\": {\"C\": 1}, \"39\": {\"C\": 1}, \"40\": {\"C\": 1}, \"41\": {\"C\": 1}, \"42\": {\"C\": 1}, \"43\": {\"C\": 1}, \"44\": {\"C\": 1}, \"45\": {\"C\": 1}, \"46\": {\"C\": 1}, \"47\": {\"C\": 1}, \"48\": {\"C\": 1}, \"49\": {\"C\": 1}, \"50\": {\"C\": 1}, \"51\": {\"C\": 1}, \"52\": {\"C\": 1}, \"53\": {\"C\": 1}, \"54\": {\"C\": 1}, \"55\": {\"C\": 1}, \"56\": {\"C\": 1}, \"57\": {\"C\": 1}, \"58\": {\"C\": 1}, \"59\": {\"C\": 1}, \"60\": {\"C\": 1}, \"61\": {\"C\": 1}, \"62\": {\"C\": 1}, \"63\": {\"C\": 1}, \"64\": {\"C\": 1}, \"65\": {\"C\": 1}, \"66\": {\"C\": 1}, \"67\": {\"C\": 1}, \"68\": {\"N\": 1}, \"69\": {\"N\": 1}, \"70\": {\"N\": 1}, \"71\": {\"N\": 1}, \"72\": {\"N\": 1}, \"73\": {\"N\": 1}, \"74\": {\"N\": 1}, \"75\": {\"N\": 1}, \"76\": {\"N\": 1}, \"77\": {\"N\": 1}, \"78\": {\"N\": 1}, \"79\": {\"N\": 1}, \"80\": {\"O\": 1}, \"81\": {\"O\": 1}, \"82\": {\"O\": 1}, \"83\": {\"O\": 1}, \"84\": {\"O\": 1}, \"85\": {\"O\": 1}, \"86\": {\"O\": 1}, \"87\": {\"O\": 1}}" energy=-612.1712646484375 free_energy=-612.1712646484375 stress="-0.0030149135272949934 -0.002448182087391615 -0.010954517871141434 -0.002448182087391615 -0.0028435783460736275 0.002787825185805559 -0.010954517871141434 0.002787825185805559 -0.0008385145920328796" pbc="T T T"
Zn       7.08301523       2.62686587       1.49130939        0      -0.10521773       0.41421229       0.50727743
Zn       5.74954278       7.57993762       9.22717277        1      -0.13491443      -0.68938911      -0.69059002
Zn       1.17913041       7.11434066       9.20099330        2       0.15799689      -0.32414043      -0.39462191
Zn       2.44461170       2.18829492       1.48250382        3      -0.03209569      -0.04121676       0.31210446
H        8.16351380       9.12057693       7.25585244        4      -0.13376066       0.41860726       0.46133137
H        4.70544595       4.22013068       3.51363311        5      -0.03458530       0.85453594      -0.86536455
H        0.04894846       0.68192334       3.44916843        6      -0.19724113      -0.49374148      -0.28132477
H        3.55290647       5.51846466       7.22950067        7      -0.01480601       0.28059688      -0.10435298
H        0.27044428       1.23983270       6.53685606        8      -0.12668651      -0.04579566       0.22539297
H        3.29847935       6.17202294       4.16844114        9       0.89770567      -0.12516895      -1.63596177
H        7.89174837       8.46207106       4.13143179       10      -0.42588907       0.48596710       0.84392416
H        4.88418044       3.60879280       6.55215216       11      -0.04433497      -0.15101212       0.71671855
H        0.24397348       3.37955399       7.80694089       12      -0.40494776      -0.89121020       0.12370521
H        3.35202604       8.27020705       2.86642610       13      -0.07698812       0.04350707       0.26403058
H        7.95640619       6.39457068       2.84667243       14      -0.00773159       0.19853607       0.17580710
H        4.85168137       1.49249445       7.79002279       15       0.53021657      -0.67818582      -0.17691685
H        8.00064616       3.67125157       9.84834192       16       0.30086803      -0.81909800      -0.89153850
H        4.77608302       8.61088322       0.85370378       17       0.11246870      -1.58077395       0.79562753
H        0.17875504       6.12810464       0.80146746       18      -0.08724758       0.78584152       0.69283736
H        3.41047505       1.19963847       9.87198777       19       0.10015655      -0.13910531      -0.10434936
H        6.53217323       0.20512190       4.91002012       20       0.30722058       0.16939655       0.17560847
H        6.26809113       5.08226306       5.75876279       21       1.33679581      -0.09657672       0.04840089
H        1.68806702       9.67091960       5.79371294       22       0.99457854      -0.36580732      -0.10993434
H        1.91900425       4.69465854       4.93262825       23       0.11543006      -0.29007858      -0.18538059
H        2.54197086       1.16711310       3.90038714       24      -1.69923556       1.15868354      -1.37112880
H        1.04202767       6.08549437       6.81451189       25       0.39908212      -0.03755969       0.07251399
H        5.73856542       8.58247275       6.81719182       26      -0.48732483       0.28367990      -0.30358261
H        7.08134507       3.68089585       3.84687295       27       0.13524732      -0.03428745      -0.20989335
C        7.34943728       0.38059991       8.96144543       28      -1.57535076       0.22303468       1.32130897
C        5.53510044       5.26919474       1.80189299       29       1.39200759       2.49962354      -3.94240880
C        0.88630741       9.41740194       1.74606401       30       0.82004321      -1.84352469      -1.40702999
C        2.64286101       4.43260705       8.91591435       31       0.65251273      -0.66966647      -0.79629076
C        8.11728129       0.21339717       7.85471096       32       1.26232862      -0.09128908      -2.17473173
C        4.73132966       5.13268755       2.84699776       33      -1.89257240      -1.03744805       3.62988091
C        0.04079111       9.56351318       2.88958476       34       1.77572751       1.37264419      -0.75740981
C        3.47517102       4.59251405       7.77888358       35      -0.23849916      -0.24561702       1.06382895
C       -0.35572544       1.31833447       7.43418798       36       0.26280034      -0.81815195      -0.28299040
C        3.93043746       6.23549222       3.19628803       37      -1.01666856      -1.65931368       3.24204779
C        8.55270322       8.47686468       3.29729730       38      -0.47900474      -2.10025644      -1.06782854
C        4.29159982       3.52258033       7.49043916       39       0.11529279      -0.23047546      -1.80448341
C       -0.35422992       2.49816299       8.15310097       40       0.70603830       2.05867529      -0.71068656
C        3.96779251       7.43005476       2.57191322       41       0.69736326       1.58766913      -2.34219694
C        8.55793176       7.25859163       2.56699276       42       1.84493566       0.19800794      -1.93595910
C        4.24005678       2.28367677       8.15240239       43      -0.15327801       0.64040601       0.57857686
C        8.06552369       2.71521071       9.24828661       44      -0.03882419       1.24280381       1.66483569
C        4.78311576       7.60242760       1.41356094       45      -0.87285876       1.63738322      -0.32674748
C        0.18400742       7.09155740       1.38308601       46      -2.23195076      -2.04045200       1.33450031
C        3.44892311       2.11259377       9.28200877       47      -0.97370183       0.72590005       0.03261949
C        7.33450366       1.63674495       9.67959789       48      -1.61531556      -2.81571245       1.08772540
C        5.51721478       6.50168245       1.00233347       49       0.60897362      -0.71584535       0.21789125
C        0.96815847       8.12678646       0.99155537       50       0.14823398       3.58484125       0.11752070
C        2.59345352       3.20487280       9.60114545       51       0.47725546      -0.52326262       1.79779744
C        5.09296183       1.49447418       3.14743367       52      -0.34471005      -0.70409966      -1.01935244
C        7.75573196       6.38525228       7.59698240       53      -5.52488804      -0.73820102      -3.44326878
C        3.12866669       8.27815643       7.62207646       54       0.06488480       1.44725132      -2.65132523
C        0.46529025       3.34920933       3.08495728       55       1.30349255       0.81581187       0.87831694
C        4.54646869       0.67016671       4.23719791       56       1.75886679       0.51411736       0.86787641
C        8.20561877       5.59019556       6.41385831       57       4.77703762       2.06454563       3.09502077
C        3.64620669       9.02650350       6.35480383       58       1.29035652      -1.94586563       3.19611502
C       -0.02333662       4.13736854       4.31338757       59      -2.97355080      -3.03483963      -4.56123447
C        5.48766941       0.10959180       5.16434868       60      -0.78073150      -0.31605154      -1.24956012
C        7.39270200       4.97313741       5.61963757       61      -5.24203253      -3.07387638      -5.03572464
C        2.78578176       9.64983440       5.55098270       62      -3.56217027       1.80673552      -1.94810009
C        0.85125017       4.72442235       5.11605591       63       2.28838038       2.24389148       2.89228725
C        3.18704994       0.56899945       4.42625932       64       1.48956907      -1.72032404       2.52913094
C        0.40020830       5.48122171       6.19182745       65      -1.36531901       0.15909924      -0.15485390
C        5.02922326       9.13458940       6.17179248       66       0.80729270      -0.17150383       0.35991338
C        7.81159093       4.21873657       4.43360417       67       0.52477896       1.56436765       3.35852909
N        7.55105578       1.38296277       0.08597605       68       0.33920342      -0.40021911      -1.91070354
N        5.29434832       6.29330504      10.63761501       69      -0.24130872       0.34143198       0.34029454
N        0.70047718       8.36497444      10.57271764       70      -0.03147525       0.44381735       2.35441113
N        2.85301263       3.45262699       0.07263707       71       1.79489648      -1.82010174      -2.59827518
N        5.90941850       0.16069918      10.63495792       72       0.48085529       0.26892996      -0.57658678
N        6.91766023       5.05305252       0.06684987       73       0.03124748       1.78989017      -0.70210028
N        2.35865314       9.58510065       0.04108787       74      -0.69154131      -0.52192181      -0.37302625
N        1.32454389       4.64706926      10.65406695       75      -1.12248051       2.31487513       0.33822474
N        6.41064623       9.36348762       9.53157998       76       0.68690681       1.97551811       1.46088254
N        6.42790378       4.51886293       1.13149818       77       0.43274188      -3.93777323       1.45504808
N        1.81162531       0.37932886       1.07276098       78      -0.79854441      -0.03259116       0.92194510
N        1.84130252       5.28158448       9.57841932       79      -1.02022696       0.90521616       0.60077989
O        6.37999610       1.69342696       3.12093480       80      -1.04386735       0.32900536      -0.32695937
O        6.39356776       6.66276769       7.55974146       81       2.84835291      -0.56629092       0.50765085
O        1.87922596       8.11779070       7.65690031       82      -1.85975361      -0.24398214      -0.32346988
O        1.72890942       3.10733543       3.06147079       83       0.30658746       0.13880143       0.69527888
O        4.27894068       1.81956863       2.20852686       84       1.59105277       0.41616911       0.21275568
O       -0.77253449       6.77797829       8.48173194       85       2.40520263       1.18417025       3.02929020
O        3.85128643       7.88904822       8.53687533       86       1.58523154      -0.61115301       1.65046012
O        9.01130212       3.00749307       2.09586519       87      -1.25458431      -0.15524183      -0.49977866
88
Lattice="9.23213013 0.0 0.0 4.908688698559445e-06 9.837255869998776 0.0 -1.104148142601199 4.777223433229213e-06 10.686104741469574" Properties=species:S:1:pos:R:3:spacegroup_kinds:I:1:forces:R:3 spacegroup="P 1" unit_cell=conventional occupancy="_JSON {\"0\": {\"Zn\": 1}, \"1\": {\"Zn\": 1}, \"2\": {\"Zn\": 1}, \"3\": {\"Zn\": 1}, \"4\": {\"H\": 1}, \"5\": {\"H\": 1}, \"6\": {\"H\": 1}, \"7\": {\"H\": 1}, \"8\": {\"H\": 1}, \"9\": {\"H\": 1}, \"10\": {\"H\": 1}, \"11\": {\"H\": 1}, \"12\": {\"H\": 1}, \"13\": {\"H\": 1}, \"14\": {\"H\": 1}, \"15\": {\"H\": 1}, \"16\": {\"H\": 1}, \"17\": {\"H\": 1}, \"18\": {\"H\": 1}, \"19\": {\"H\": 1}, \"20\": {\"H\": 1}, \"21\": {\"H\": 1}, \"22\": {\"H\": 1}, \"23\": {\"H\": 1}, \"24\": {\"H\": 1}, \"25\": {\"H\": 1}, \"26\": {\"H\": 1}, \"27\": {\"H\": 1}, \"28\": {\"C\": 1}, \"29\": {\"C\": 1}, \"30\": {\"C\": 1}, \"31\": {\"C\": 1}, \"32\": {\"C\": 1}, \"33\": {\"C\": 1}, \"34\": {\"C\": 1}, \"35\": {\"C\": 1}, \"36\": {\"C\": 1}, \"37\": {\"C\": 1}, \"38\": {\"C\": 1}, \"39\": {\"C\": 1}, \"40\": {\"C\": 1}, \"41\": {\"C\": 1}, \"42\": {\"C\": 1}, \"43\": {\"C\": 1}, \"44\": {\"C\": 1}, \"45\": {\"C\": 1}, \"46\": {\"C\": 1}, \"47\": {\"C\": 1}, \"48\": {\"C\": 1}, \"49\": {\"C\": 1}, \"50\": {\"C\": 1}, \"51\": {\"C\": 1}, \"52\": {\"C\": 1}, \"53\": {\"C\": 1}, \"54\": {\"C\": 1}, \"55\": {\"C\": 1}, \"56\": {\"C\": 1}, \"57\": {\"C\": 1}, \"58\": {\"C\": 1}, \"59\": {\"C\": 1}, \"60\": {\"C\": 1}, \"61\": {\"C\": 1}, \"62\": {\"C\": 1}, \"63\": {\"C\": 1}, \"64\": {\"C\": 1}, \"65\": {\"C\": 1}, \"66\": {\"C\": 1}, \"67\": {\"C\": 1}, \"68\": {\"N\": 1}, \"69\": {\"N\": 1}, \"70\": {\"N\": 1}, \"71\": {\"N\": 1}, \"72\": {\"N\": 1}, \"73\": {\"N\": 1}, \"74\": {\"N\": 1}, \"75\": {\"N\": 1}, \"76\": {\"N\": 1}, \"77\": {\"N\": 1}, \"78\": {\"N\": 1}, \"79\": {\"N\": 1}, \"80\": {\"O\": 1}, \"81\": {\"O\": 1}, \"82\": {\"O\": 1}, \"83\": {\"O\": 1}, \"84\": {\"O\": 1}, \"85\": {\"O\": 1}, \"86\": {\"O\": 1}, \"87\": {\"O\": 1}}" energy=-611.039794921875 free_energy=-611.039794921875 stress="-0.008917630650103092 -0.0017787165706977248 -0.00982828438282013 -0.0017787165706977248 -0.0056525953114032745 0.0013269137125462294 -0.00982828438282013 0.0013269137125462294 0.005240170750766993" pbc="T T T"
Zn       7.10226313       2.67137385       1.49537140        0       0.13915846      -0.15437697       0.46854782
Zn       5.75059624       7.54013829       9.23857229        1       0.19717173      -0.23342726      -0.78338772
Zn       1.22721087       7.07802640       9.18176979        2      -0.07319289      -0.33306804      -0.57558942
Zn       2.48642932       2.14203631       1.51742693        3      -0.01018196       0.24293199      -0.07834743
H        8.19896856       9.08773057       7.29492902        4      -0.14660335       0.71207607       0.10503326
H        4.73526033       4.18863459       3.56031660        5       0.05535791       1.38420773      -1.40768385
H        0.00459303       0.65180937       3.40888181        6      -0.16355546       0.84247535       0.49461097
H        3.57950185       5.47887907       7.18549888        7      -0.04652355       0.57095695      -0.11436552
H        0.28391579       1.24695093       6.56968797        8       0.07585642      -0.44985056       0.02803865
H        3.33506654       6.14760173       4.15144712        9       0.36430153      -0.21808234      -0.66625082
H        7.87959420       8.44078837       4.17407916       10       0.51408237       0.41374087      -0.79803824
H        4.92169399       3.60880327       6.59972887       11       0.76663548      -0.13778239      -0.67415208
H        0.25291923       3.36806942       7.82114786       12      -0.06351772      -1.01863277      -0.29756203
H        3.37535667       8.22230689       2.91017124       13      -1.11858201       1.72598529       0.66513550
H        8.00087366       6.36542599       2.89039589       14       0.08786050       0.16780625       0.09801310
H        4.88645999       1.52758734       7.83640072       15       1.54262626      -2.03665566      -0.74177110
H        8.03741832       3.69908147       9.86351327       16       0.27011734      -1.79226470      -1.59081078
H        4.78574572       8.58069859       0.87796369       17       0.22817887      -0.60751742      -0.13966802
H        0.22118325       6.12298069       0.84112510       18      -0.04615943      -0.75279444      -0.34983996
H        3.42284381       1.15397423       9.82920077       19       0.12363359      -0.01032813       0.06793719
H        6.57655484       0.21036547       4.91995107       20       0.26842934       0.22990540       0.16657984
H        6.31637434       5.03283232       5.80067601       21       0.65017331      -0.01542735       0.03353152
H        1.72935647       9.68367825       5.83340929       22       1.05098832      -0.47770652      -0.52372867
H        1.91586541       4.65882944       4.95552588       23       1.89235234      -0.29911804      -0.56569314
H        2.52976160       1.18632322       3.90484331       24      -0.23099257      -0.01549783      -0.40270016
H        1.07702502       6.04695873       6.83872263       25       0.02402712      -0.53295863      -0.63895023