68
Lattice="7.29635543 0.0 0.0 0.306396434997855 9.186603782740194 0.0 0.17069581123715544 1.3371231677063282 11.357881115673718" Properties=species:S:1:pos:R:3:spacegroup_kinds:I:1:forces:R:3 spacegroup="P 1" unit_cell=conventional occupancy="_JSON {\"0\": {\"Cd\": 1}, \"1\": {\"Cd\": 1}, \"2\": {\"H\": 1}, \"3\": {\"H\": 1}, \"4\": {\"H\": 1}, \"5\": {\"H\": 1}, \"6\": {\"H\": 1}, \"7\": {\"H\": 1}, \"8\": {\"H\": 1}, \"9\": {\"H\": 1}, \"10\": {\"H\": 1}, \"11\": {\"H\": 1}, \"12\": {\"H\": 1}, \"13\": {\"H\": 1}, \"14\": {\"H\": 1}, \"15\": {\"H\": 1}, \"16\": {\"H\": 1}, \"17\": {\"H\": 1}, \"18\": {\"H\": 1}, \"19\": {\"H\": 1}, \"20\": {\"H\": 1}, \"21\": {\"H\": 1}, \"22\": {\"H\": 1}, \"23\": {\"H\": 1}, \"24\": {\"C\": 1}, \"25\": {\"C\": 1}, \"26\": {\"C\": 1}, \"27\": {\"C\": 1}, \"28\": {\"C\": 1}, \"29\": {\"C\": 1}, \"30\": {\"C\": 1}, \"31\": {\"C\": 1}, \"32\": {\"C\": 1}, \"33\": {\"C\": 1}, \"34\": {\"C\": 1}, \"35\": {\"C\": 1}, \"36\": {\"C\": 1}, \"37\": {\"C\": 1}, \"38\": {\"C\": 1}, \"39\": {\"C\": 1}, \"40\": {\"C\": 1}, \"41\": {\"C\": 1}, \"42\": {\"C\": 1}, \"43\": {\"C\": 1}, \"44\": {\"C\": 1}, \"45\": {\"C\": 1}, \"46\": {\"C\": 1}, \"47\": {\"C\": 1}, \"48\": {\"N\": 1}, \"49\": {\"N\": 1}, \"50\": {\"N\": 1}, \"51\": {\"N\": 1}, \"52\": {\"N\": 1}, \"53\": {\"N\": 1}, \"54\": {\"N\": 1}, \"55\": {\"N\": 1}, \"56\": {\"N\": 1}, \"57\": {\"N\": 1}, \"58\": {\"Cl\": 1}, \"59\": {\"Cl\": 1}, \"60\": {\"Cl\": 1}, \"61\": {\"Cl\": 1}, \"62\": {\"O\": 1}, \"63\": {\"O\": 1}, \"64\": {\"O\": 1}, \"65\": {\"O\": 1}, \"66\": {\"O\": 1}, \"67\": {\"O\": 1}}" energy=-434.07135009765625 free_energy=-434.07135009765625 stress="-0.002328570233657956 -0.002825296949595213 0.0020303744822740555 -0.002825296949595213 -0.0027430993504822254 0.0029425928369164467 0.0020303744822740555 0.0029425928369164467 -0.0031080562621355057" pbc="T T T"
Cd       2.03400042       4.54537545       5.62317088        0       0.25138786      -0.07570729       0.00839133
Cd       5.73966027       5.97864386       5.73261281        1      -0.25439045       0.08412269      -0.00388231
H        3.69939286       4.25349773       3.10059121        2       0.08103157       0.13816501      -0.11446037
H        4.07254909       6.27034746       8.25790661        3      -0.08091813      -0.14586936       0.10842443
H        0.71291027       3.16614387       8.20916490        4       0.03255255      -0.04231637       0.01636547
H        7.05841110       7.36010433       3.14675714        5      -0.02219668      -0.00580614      -0.05159327
H        0.55106399      10.05729896       9.16163042        6      -0.01730832      -0.00442601       0.01708007
H        7.22079338       0.46750207       2.19418527        7       0.00880186       0.01136753      -0.00531600
H        1.15984241       8.05764734       7.78292716        8      -0.01823320      -0.00194424       0.01293230
H        6.61175187       2.46865500       3.57261082        9       0.01186618      -0.04279086       0.00687018
H        2.27699219       8.39514254       5.56786681       10      -0.02131076       0.00838093       0.01143419
H        5.49462647       2.13000514       5.78848739       11       0.00250967       0.03468767       0.01203669
H        2.86237012       0.75164387       3.82207067       12       0.02772959       0.10677847      -0.03763410
H        4.90753298       9.77238369       7.53333694       13      -0.04059386      -0.10237283       0.05143728
H        5.03428150       5.31340862       2.02457999       14      -0.07920700      -0.00493282       0.06016168
H        2.73693806       5.21134926       9.33320710       15       0.08484863      -0.00851557      -0.07616338
H        6.39244348       5.09504347       9.48385784       16       0.06609902       0.00709569       0.00701040
H        1.38054211       5.43026948       1.87354821       17      -0.03061480      -0.01979224      -0.11355087
H        5.47048419       2.90253107       9.52923861       18       0.05596380      -0.07501712      -0.12236600
H        2.30354096       7.62096039       1.82815042       19      -0.05216352       0.08354567       0.08063273
H        4.05425366       2.63616046      10.59068432       20       0.01082891      -0.09960410       0.03901315
H        3.71717450       7.88797487       0.76638025       21       0.02733291       0.10468197      -0.05392922
H        5.66969846       2.13169851      11.14341799       22      -0.04355974      -0.03180198       0.03659830
H        2.10164957       8.39361330       0.21192702       23       0.06771557       0.00778659      -0.00665247
C        0.96623546       2.25342565       7.66497903       24      -0.06276053      -0.04913586       0.12321248
C        6.80381310       8.27151820       3.68884050       25       0.04837564       0.08279577      -0.00526898
C        0.71106703       0.98968155       8.18566795       26       0.01157629       0.06712796      -0.00933180
C        7.06000032       9.53554110       3.17030170       27      -0.01225614      -0.02922950      -0.01999700
C        1.36882303       9.06377522       7.42070255       28      -0.00445651      -0.06174487       0.00604574
C        6.40232069       1.46121805       3.93541582       29      -0.00722286       0.08231679       0.01569503
C        1.97833820       9.24503677       6.18610672       30      -0.10569835       0.07691803       0.16098692
C        5.79081848       1.28040795       5.17135253       31       0.15918557      -0.02775401      -0.26195845
C        1.91193311       1.36585801       5.72950244       32       0.34851199      -0.12064955      -0.70579255
C        5.85691533       9.16312047       5.62808171       33      -0.27328697      -0.16222650       0.59472078
C        2.59439995       1.59689511       4.45699331       34      -0.24880543      -0.41959882       0.55682015
C        5.17521431       8.92710641       6.89893669       35       0.25668180       0.45310658      -0.54249364
C        4.00399237       2.49604453       1.98292444       36      -0.50888699      -0.17758217       0.56068552
C        3.76608244       8.03030490       9.37652236       37       0.56935894       0.11479867      -0.71705073
C        4.75837492       3.33199021       1.03592391       38       0.10918388       0.04341231      -0.26835629
C        3.01364571       7.19441854      10.32131271       39      -0.15208751      -0.13840160       0.27077094
C        5.16565932       4.65229362       1.17618457       40       0.01243761      -0.14816353       0.13568550
C        2.60664231       5.87231744      10.18098908       41      -0.00666550       0.22575043      -0.10696864
C        5.98931369       6.33093950      11.33163475       42       0.09758964      -0.32866007      -0.60830832
C        1.78181412       4.19576388       0.02624549       43      -0.06201936       0.23964539       0.46672314
C        5.98205709       5.21838820      10.48019931       44       0.04736823       0.55141276      -0.03062528
C        1.78959551       5.30761271       0.87275237       45      -0.15012634      -0.50001168       0.32975054
C        5.12182016       2.88833336      10.56618920       46       0.01741383       0.10587199      -0.08863266
C        2.65080769       7.63590920       0.78923961       47      -0.09470080      -0.05804841       0.13998242
N        1.54771997       2.43595399       6.47017495       48       0.04216762       0.19754180      -0.06122734
N        6.22603335       8.08871945       4.88570335       49      -0.11323656      -0.05448911       0.12852775
N        2.88351841       2.82629580       4.15457586       50      -0.14723048       0.29223981      -0.04086900
N        4.88854994       7.69750462       7.20223019       51       0.11658061      -0.30999079       0.05089670
N        3.55847927       3.23633626       3.07139006       52       0.23884293       0.26679167      -0.23106429
N        4.21019875       7.28766418       8.28396924       53      -0.23854968      -0.18411013       0.30236420
N        5.34138441       4.21703210      11.13450746       54      -0.17930456      -0.23286137       0.33974275
N        2.42882960       6.30892750       0.22176089       55       0.23402804       0.25363752      -0.40290529
N        6.56111071       7.60287345      11.03592596       56       0.23731267       0.49365187       0.11632442
N        1.21142477       2.92365095       0.32117576       57      -0.26712063      -0.54172421      -0.12050104
Cl       7.19408103       4.81950793       3.98674495       58       0.10185012       0.13201800       0.00224176
Cl       0.57870624       5.70517404       7.36883855       59      -0.09851788      -0.13295253      -0.00231763
Cl       3.42394616       6.22292593       4.20841129       60       0.24856994       0.00917125       0.16756712
Cl       4.34929124       4.30083914       7.14836445       61      -0.24761425      -0.00935227      -0.16960476
O        3.77037899       1.29060282       1.84187337       62       0.10706104      -0.07108270      -0.01300333
O        4.00136999       9.23502647       9.51508534       63      -0.10560203       0.09809214       0.02862925
O        7.07617403       7.76678583       9.91531081       64       0.02311251      -0.11130916      -0.03447121
O        0.69674867       2.75831070       1.44152816       65      -0.02417800       0.12325874       0.05682796
O        6.33835507       7.14815970       0.56590223       66      -0.13070409      -0.17646882       0.12944084
O        1.43218380       3.37763167      10.79110378       67       0.14565147       0.21027118      -0.12573379
68
Lattice="7.29635543 0.0 0.0 0.306396434997855 9.186603782740194 0.0 0.17069581123715544 1.3371231677063282 11.357881115673718" Properties=species:S:1:pos:R:3:spacegroup_kinds:I:1:forces:R:3 spacegroup="P 1" unit_cell=conventional occupancy="_JSON {\"0\": {\"Cd\": 1}, \"1\": {\"Cd\": 1}, \"2\": {\"H\": 1}, \"3\": {\"H\": 1}, \"4\": {\"H\": 1}, \"5\": {\"H\": 1}, \"6\": {\"H\": 1}, \"7\": {\"H\": 1}, \"8\": {\"H\": 1}, \"9\": {\"H\": 1}, \"10\": {\"H\": 1}, \"11\": {\"H\": 1}, \"12\": {\"H\": 1}, \"13\": {\"H\": 1}, \"14\": {\"H\": 1}, \"15\": {\"H\": 1}, \"16\": {\"H\": 1}, \"17\": {\"H\": 1}, \"18\": {\"H\": 1}, \"19\": {\"H\": 1}, \"20\": {\"H\": 1}, \"21\": {\"H\": 1}, \"22\": {\"H\": 1}, \"23\": {\"H\": 1}, \"24\": {\"C\": 1}, \"25\": {\"C\": 1}, \"26\": {\"C\": 1}, \"27\": {\"C\": 1}, \"28\": {\"C\": 1}, \"29\": {\"C\": 1}, \"30\": {\"C\": 1}, \"31\": {\"C\": 1}, \"32\": {\"C\": 1}, \"33\": {\"C\": 1}, \"34\": {\"C\": 1}, \"35\": {\"C\": 1}, \"36\": {\"C\": 1}, \"37\": {\"C\": 1}, \"38\": {\"C\": 1}, \"39\": {\"C\": 1}, \"40\": {\"C\": 1}, \"41\": {\"C\": 1}, \"42\": {\"C\": 1}, \"43\": {\"C\": 1}, \"44\": {\"C\": 1}, \"45\": {\"C\": 1}, \"46\": {\"C\": 1}, \"47\": {\"C\": 1}, \"48\": {\"N\": 1}, \"49\": {\"N\": 1}, \"50\": {\"N\": 1}, \"51\": {\"N\": 1}, \"52\": {\"N\": 1}, \"53\": {\"N\": 1}, \"54\": {\"N\": 1}, \"55\": {\"N\": 1}, \"56\": {\"N\": 1}, \"57\": {\"N\": 1}, \"58\": {\"Cl\": 1}, \"59\": {\"Cl\": 1}, \"60\": {\"Cl\": 1}, \"61\": {\"Cl\": 1}, \"62\": {\"O\": 1}, \"63\": {\"O\": 1}, \"64\": {\"O\": 1}, \"65\": {\"O\": 1}, \"66\": {\"O\": 1}, \"67\": {\"O\": 1}}" energy=-434.10906982421875 free_energy=-434.10906982421875 stress="-0.0019519483903422952 -0.0025504897348582745 0.0016725329915061593 -0.0025504897348582745 -0.002099091885611415 0.0022852865513414145 0.0016725329915061593 0.0022852865513414145 -0.002717426512390375" pbc="T T T"
Cd       2.03682768       4.54336624       5.62386599        0       0.24402061      -0.04472873       0.00318852
Cd       5.73667021       5.98138789       5.73018136        1      -0.24225181       0.05909654      -0.00029701
H        3.70003903       4.25622609       3.09914890        2       0.08421209       0.15373778      -0.12237853
H        4.07097535       6.26790972       8.25801918        3      -0.07414050      -0.09228763       0.11927720
H        0.71284840       3.16620082       8.20898453        4       0.01705753      -0.01116056       0.04498214
H        7.05557067       7.36035860       3.14509185        5      -0.02099893       0.02042945      -0.03312507
H        0.54969923      10.05827932       9.16057783        6      -0.01420761      -0.01049930       0.01419599
H        7.21990295       0.46845896       2.19363846        7       0.00136238       0.00712029       0.00383060
H        1.15866494       8.05893993       7.78302650        8      -0.01375758       0.00389856       0.00393737
H        6.61116851       2.46880826       3.57209625        9       0.01221438      -0.00865488       0.00350854
H        2.27524014       8.39611200       5.56590605       10      -0.04187451       0.04161142       0.05437816
H        5.49381270       2.13159211       5.78717887       11       0.03345032      -0.03235717      -0.04104981
H        2.86248212       0.75316002       3.82088312       12       0.01556377       0.12302171      -0.00692350
H        4.90576019       9.77118876       7.53433562       13      -0.04838793      -0.07223403       0.04778747
H        5.03354613       5.31369519       2.02382423       14      -0.07490351      -0.01249346       0.05647992
H        2.73882901       5.21085998       9.33282824       15       0.07377501       0.01800713      -0.05156475
H        6.39300494       5.09552832       9.48396415       16       0.06418443       0.00490350      -0.01254502
H        1.37846828       5.43115987       1.87227823       17      -0.05205214      -0.02425393      -0.05015284
H        5.47201040       2.90058342       9.52682251       18       0.04598112      -0.04101472      -0.10031708
H        2.30206169       7.62275912       1.82940866       19      -0.05504465       0.06737729       0.08450558
H        4.05460243       2.63527991      10.59112306       20       0.01357540      -0.08404946       0.02216787
H        3.71707499       7.89063222       0.76392276       21      -0.06014764       0.07512269      -0.03326156
H        5.66791329       2.13155693      11.14319967       22      -0.06751919       0.02573055      -0.00197922
H        2.10141258       8.39449705       0.21067468       23       0.07996095      -0.02670902       0.03212367
C        0.96400362       2.25329261       7.66719207       24       0.07036540       0.00632632      -0.11927968
C        6.80391117       8.27328626       3.68773368       25      -0.03270116       0.00267881       0.11864425
C        0.71043333       0.99080590       8.18481205       26      -0.01342759       0.04226787       0.02613050
C        7.05875724       9.53568504       3.16993641       27       0.00466480       0.04116823      -0.03543508
C        1.36842963       9.06465555       7.41905662       28      -0.06064654      -0.09769790       0.11730033
C        6.40082856       1.46302159       3.93580067       29       0.05902201      -0.00349604      -0.09722354
C        1.97552155       9.24531311       6.18785343       30      -0.00465506       0.11604405      -0.05251855
C        5.79258996       1.28012638       5.16848604       31       0.02948372       0.05151193      -0.03261126
C        1.91104496       1.36770999       5.72681648       32       0.27899903      -0.15045018      -0.52699387
C        5.85454152       9.16346823       5.63097287       33      -0.16299516      -0.13048221       0.36636800
C        2.59233458       1.59717753       4.45832385       34      -0.15150560      -0.29661304       0.36736810
C        5.17377602       8.93007455       6.89597569       35       0.17360325       0.21521994      -0.35568392
C        4.00100891       2.49658650       1.98390180       36      -0.40514004      -0.24659286       0.42298084
C        3.76450209       8.03304833       9.37365856       37       0.49687412       0.00208849      -0.58461732
C        4.75692153       3.33262849       1.03388824       38       0.02818353      -0.01459531      -0.11908105
C        3.01114998       7.19420492      10.32262238       39      -0.03442978       0.04042202       0.11558580
C        5.16564248       4.65073518       1.17675829       40       0.04005921      -0.06228990       0.07688260
C        2.60522370       5.87522269      10.17865413       41      -0.08829153       0.09776232       0.02373368
C        5.98736266       6.32911965      11.32901953       42       0.15078051      -0.10974339      -0.49004254
C        1.78000662       4.19867535       0.02921470       43      -0.04241309       0.03385153       0.24980697
C        5.98013748       5.22135140      10.47819650       44       0.01186869       0.41162181       0.00237840
C        1.78753597       5.30465108       0.87424350       45      -0.04208919      -0.22806595       0.25215352
C        5.12144504       2.89105467      10.56359447       46       0.03604169       0.03015798       0.00306165
C        2.64855268       7.63458763       0.79063011       47       0.00175960       0.06195967       0.05656944
N        1.54951632       2.43888254       6.46827298       48      -0.06108280       0.09693307       0.10671917
N        6.22379543       8.08892898       4.88735801       49      -0.05722769      -0.00956416       0.02841522
N        2.88073835       2.82910120       4.15274209       50      -0.12265828       0.20469204      -0.03914744
N        4.89082249       7.69591214       7.20146978       51       0.06511009      -0.17791519       0.09888458
N        3.56090398       3.23928797       3.06950613       52       0.11567309       0.15918940      -0.09741393
N        4.20829895       7.28652151       8.28514017       53      -0.14468589      -0.12833756       0.15849116
N        5.33893609       4.21913300      11.13698215       54      -0.11129920      -0.29774380       0.09364932
N        2.42874020       6.31112783       0.21994267       55       0.10011213       0.05929959      -0.23144911
N        6.56335737       7.60562338      11.03739940       56       0.15100443       0.22550911      -0.03996778
N        1.20917933       2.92117010       0.32115826       57      -0.15596372      -0.29940927      -0.16142598
Cl       7.19669903       4.82233419       3.98506749       58       0.09722468       0.13226743       0.00605013
Cl       0.57845193       5.70260246       7.36773560       59      -0.10044859      -0.12903413      -0.00174358
Cl       3.42692425       6.22269481       4.21114341       60       0.24420285       0.01006547       0.15768932
Cl       4.34713877       4.30236017       7.14551145       61      -0.24248347      -0.01061154      -0.16132328
O        3.77210883       1.28858910       1.84174928       62       0.09168253       0.05703050       0.03683609
O        3.99857574       9.23740465       9.51524081       63      -0.09299614       0.09514438      -0.01203956
O        7.07575939       7.76511400       9.91289899       64       0.00646600      -0.04215884       0.09773111
O        0.69610310       2.76041701       1.44089883       65      -0.08097516       0.03250312       0.11830586
O        6.33585898       7.14552088       0.56818369       66      -0.08100510      -0.06066972       0.15058714
O        1.43390456       3.37972264      10.78930094       67       0.11586733       0.13014323      -0.13109410
68
Lattice="7.29635543 0.0 0.0 0.306396434997855 9.186603782740194 0.0 0.17069581123715544 1.3371231677063282 11.357881115673718" Properties=species:S:1:pos:R:3:spacegroup_kinds:I:1:forces:R:3 spacegroup="P 1" unit_cell=conventional occupancy="_JSON {\"0\": {\"Cd\": 1}, \"1\": {\"Cd\": 1}, \"2\": {\"H\": 1}, \"3\": {\"H\": 1}, \"4\": {\"H\": 1}, \"5\": {\"H\": 1}, \"6\": {\"H\": 1}, \"7\": {\"H\": 1}, \"8\": {\"H\": 1}, \"9\": {\"H\": 1}, \"10\": {\"H\": 1}, \"11\": {\"H\": 1}, \"12\": {\"H\": 1}, \"13\": {\"H\": 1}, \"14\": {\"H\": 1}, \"15\": {\"H\": 1}, \"16\": {\"H\": 1}, \"17\": {\"H\": 1}, \"18\": {\"H\": 1}, \"19\": {\"H\": 1}, \"20\": {\"H\": 1}, \"21\": {\"H\": 1}, \"22\": {\"H\": 1}, \"23\": {\"H\": 1}, \"24\": {\"C\": 1}, \"25\": {\"C\": 1}, \"26\": {\"C\": 1}, \"27\": {\"C\": 1}, \"28\": {\"C\": 1}, \"29\": {\"C\": 1}, \"30\": {\"C\": 1}, \"31\": {\"C\": 1}, \"32\": {\"C\": 1}, \"33\": {\"C\": 1}, \"34\": {\"C\": 1}, \"35\": {\"C\": 1}, \"36\": {\"C\": 1}, \"37\": {\"C\": 1}, \"38\": {\"C\": 1}, \"39\": {\"C\": 1}, \"40\": {\"C\": 1}, \"41\": {\"C\": 1}, \"42\": {\"C\": 1}, \"43\": {\"C\": 1}, \"44\": {\"C\": 1}, \"45\": {\"C\": 1}, \"46\": {\"C\": 1}, \"47\": {\"C\": 1}, \"48\": {\"N\": 1}, \"49\": {\"N\": 1}, \"50\": {\"N\": 1}, \"51\": {\"N\": 1}, \"52\": {\"N\": 1}, \"53\": {\"N\": 1}, \"54\": {\"N\": 1}, \"55\": {\"N\": 1}, \"56\": {\"N\": 1}, \"57\": {\"N\": 1}, \"58\": {\"Cl\": 1}, \"59\": {\"Cl\": 1}, \"60\": {\"Cl\": 1}, \"61\": {\"Cl\": 1}, \"62\": {\"O\": 1}, \"63\": {\"O\": 1}, \"64\": {\"O\": 1}, \"65\": {\"O\": 1}, \"66\": {\"O\": 1}, \"67\": {\"O\": 1}}" energy=-434.13543701171875 free_energy=-434.13543701171875 stress="-0.0018203856889158487 -0.0019815173000097275 0.0012760355602949858 -0.0019815173000097275 -0.001323346863500774 0.0015006897738203406 0.0012760355602949858 0.0015006897738203406 -0.0025237463414669037" pbc="T T T"
Cd       2.03948982       4.54186093       5.62402820        0       0.23326129      -0.02822569       0.00126549
Cd       5.73388066       5.98184921       5.72918714        1      -0.23132168       0.05424538      -0.00360192
H        3.69967810       4.25881257       3.09624853        2       0.08402136       0.16070203      -0.12496902
H        4.06882634       6.26565668       8.25803988        3      -0.07079232      -0.07262003       0.12815110
H        0.71195958       3.16657385       8.20869127        4       0.03282016      -0.04797071       0.01756107
H        7.05379167       7.36128785       3.14306380        5      -0.03368392       0.06044164       0.00286486
H        0.54896030      10.05944443       9.15923117        6      -0.01927320      -0.00287719       0.02347642
H        7.21924592       0.46895599       2.19328864        7       0.00941996       0.00640221      -0.02001010
H        1.15754967       8.05989097       7.78264537        8      -0.02138445      -0.03660478       0.01587930
H        6.61068378       2.46899870       3.57103592        9       0.02410411       0.03351934      -0.01434093
H        2.27286515       8.39728286       5.56644272       10      -0.03211276       0.02521375       0.03004072
H        5.49356680       2.13238955       5.78521405       11       0.04588937      -0.04191077      -0.06092671
H        2.86211101       0.75513264       3.81991079       12       0.01803452       0.07512586      -0.01341203
H        4.90348389       9.76992617       7.53542778       13      -0.04070989      -0.05675903       0.03462221
H        5.03236085       5.31435078       2.02388419       14      -0.06750926      -0.03781784       0.02597624
H        2.74001631       5.21182286       9.33081191       15       0.05253341       0.06652124       0.01836187
H        6.39250719       5.09693896       9.48278149       16       0.06823080       0.00398336      -0.02584043
H        1.37623083       5.43092398       1.87055484       17      -0.07895137      -0.01435640       0.03460830
H        5.47360136       2.89958744       9.52389671       18       0.01077093      -0.02836940      -0.00751434
H        2.30081014       7.62511469       1.82864648       19      -0.05284446       0.05763838       0.09210349
H        4.05484661       2.63421256      10.59160569       20       0.03067560      -0.07224233       0.01014891
H        3.71421114       7.89302442       0.76114343       21       0.00680043       0.08766899      -0.02079022
H        5.66515457       2.13274545      11.14112384       22      -0.02361710      -0.01609208       0.03855893
H        2.10198524       8.39539126       0.20998107       23       0.06193796      -0.01258907       0.02483818
C        0.96468979       2.25356733       7.66452075       24      -0.00571402       0.05577537       0.00991771
C        6.80257420       8.27493498       3.68804511       25      -0.05374162      -0.03187382       0.12537777
C        0.70913477       0.99173093       8.18348743       26      -0.00371955      -0.00445282       0.02631190
C        7.05747464       9.53746680       3.16863830       27       0.01789922      -0.04097828      -0.03537387
C        1.36667518       9.06456329       7.41953559       28      -0.01810011      -0.00466783       0.01494934
C        6.40137211       1.46393322       3.93307099       29       0.01192920      -0.00601977      -0.01409051
C        1.97364906       9.24742941       6.18578172       30      -0.04953497       0.06013942       0.05658623
C        5.79325981       1.28072876       5.16584566       31      -0.01321809       0.03127331       0.04873712
C        1.90990636       1.36805165       5.72399111       32       0.20992932      -0.11263490      -0.38369927
C        5.85206658       9.16414219       5.63391006       33      -0.04379058      -0.06831516       0.12518355
C        2.58971846       1.59442104       4.46017762       34      -0.03361492       0.05947396       0.17762327
C        5.17428603       8.93284717       6.89335084       35       0.02858689      -0.06810056      -0.12595665
C        3.99806950       2.49473752       1.98626886       36      -0.25179514       0.00874856       0.26660281
C        3.76669707       8.03489605       9.37121764       37       0.36994874      -0.07379219      -0.47342914
C        4.75573288       3.33110107       1.03137242       38      -0.01063171       0.03234176       0.01570144
C        3.01033075       7.19474074      10.32272140       39       0.03422031       0.12629235       0.03393617
C        5.16545372       4.65041538       1.17635060       40       0.02893314      -0.09631181       0.03902251
C        2.60277252       5.87785132      10.17801891       41      -0.10043864      -0.02800031       0.01296461
C        5.98610586       6.32878870      11.32611075       42       0.16068858      -0.00863695      -0.37060499
C        1.77816995       4.19913457       0.03193662       43      -0.01896395      -0.03799173       0.09574185
C        5.97995185       5.22432000      10.47641415       44      -0.07112432       0.21109307       0.03909820
C        1.78575473       5.30182016       0.87607673       45       0.08629072      -0.00474173       0.09788781
C        5.12179421       2.89303785      10.56354857       46      -0.01099218      -0.02132738      -0.13476110
C        2.64816776       7.63609047       0.79056467       47      -0.04256394       0.02214526       0.01374501
N        1.54769538       2.44055288       6.46865367       48       0.01527057       0.04433954      -0.04272930
N        6.22123039       8.08909932       4.88811078       49      -0.02679656       0.02442491      -0.00945152
N        2.87789822       2.83205872       4.15157701       50      -0.13105747      -0.00342664      -0.01570511
N        4.89076479       7.69326994       7.20096095       51       0.09336972       0.03213394       0.05467469
N        3.56113761       3.24213436       3.06725773       52       0.00569823       0.05944934       0.05449825
N        4.20633411       7.28472749       8.28528419       53      -0.06346308      -0.05889976       0.06956388
N        5.33649704       4.21730983      11.13740878       54       0.01056847      -0.09887594      -0.02444145
N        2.42987324       6.31281309       0.21702176       55      -0.03436870      -0.07526338      -0.01969206
N        6.56555045       7.60840340      11.03742489       56       0.02250353       0.03148162       0.02216996
N        1.20666263       2.91830256       0.31857827       57      -0.14321801      -0.09178537       0.05604443
Cl       7.19791515       4.82495186       3.98339802       58       0.09482798       0.12997088       0.00992608
Cl       0.57625591       5.69978738       7.36619660       59      -0.09860043      -0.12433440      -0.00007955
Cl       3.42971398       6.22160679       4.21367391       60       0.24142897       0.01540052       0.14631294
Cl       4.34423165       4.30328572       7.14274109       61      -0.24225320      -0.01568378      -0.15015480
O        3.77252155       1.28943986       1.84235707       62       0.02555023      -0.14176121       0.06059393
O        3.99587968       9.24010792       9.51331105       63      -0.06073379       0.07104872      -0.04225792
O        7.07511847       7.76450089       9.91368044       64       0.07456967       0.03616355       0.01254296
O        0.69409143       2.76197137       1.44257358       65      -0.03822157      -0.03208771      -0.05666304
O        6.33483307       7.14407683       0.57024395       66      -0.04993854       0.01072451       0.15788138
O        1.43579566       3.38153851      10.78636282       67       0.07808173       0.02451748      -0.15155756
68