92
Lattice="5.41258678 0.0 0.0 0.00018969706845810015 14.040798108718558 0.0 -0.00019940686223693434 -0.0007221933220620307 21.106132426702292" Properties=species:S:1:pos:R:3:spacegroup_kinds:I:1:forces:R:3 spacegroup="P 1" unit_cell=conventional occupancy="_JSON {\"0\": {\"Sr\": 1}, \"1\": {\"Sr\": 1}, \"2\": {\"Sr\": 1}, \"3\": {\"Sr\": 1}, \"4\": {\"H\": 1}, \"5\": {\"H\": 1}, \"6\": {\"H\": 1}, \"7\": {\"H\": 1}, \"8\": {\"H\": 1}, \"9\": {\"H\": 1}, \"10\": {\"H\": 1}, \"11\": {\"H\": 1}, \"12\": {\"H\": 1}, \"13\": {\"H\": 1}, \"14\": {\"H\": 1}, \"15\": {\"H\": 1}, \"16\": {\"H\": 1}, \"17\": {\"H\": 1}, \"18\": {\"H\": 1}, \"19\": {\"H\": 1}, \"20\": {\"H\": 1}, \"21\": {\"H\": 1}, \"22\": {\"H\": 1}, \"23\": {\"H\": 1}, \"24\": {\"H\": 1}, \"25\": {\"H\": 1}, \"26\": {\"H\": 1}, \"27\": {\"H\": 1}, \"28\": {\"H\": 1}, \"29\": {\"H\": 1}, \"30\": {\"H\": 1}, \"31\": {\"H\": 1}, \"32\": {\"H\": 1}, \"33\": {\"H\": 1}, \"34\": {\"H\": 1}, \"35\": {\"H\": 1}, \"36\": {\"C\": 1}, \"37\": {\"C\": 1}, \"38\": {\"C\": 1}, \"39\": {\"C\": 1}, \"40\": {\"C\": 1}, \"41\": {\"C\": 1}, \"42\": {\"C\": 1}, \"43\": {\"C\": 1}, \"44\": {\"N\": 1}, \"45\": {\"N\": 1}, \"46\": {\"N\": 1}, \"47\": {\"N\": 1}, \"48\": {\"N\": 1}, \"49\": {\"N\": 1}, \"50\": {\"N\": 1}, \"51\": {\"N\": 1}, \"52\": {\"N\": 1}, \"53\": {\"N\": 1}, \"54\": {\"N\": 1}, \"55\": {\"N\": 1}, \"56\": {\"N\": 1}, \"57\": {\"N\": 1}, \"58\": {\"N\": 1}, \"59\": {\"N\": 1}, \"60\": {\"N\": 1}, \"61\": {\"N\": 1}, \"62\": {\"N\": 1}, \"63\": {\"N\": 1}, \"64\": {\"N\": 1}, \"65\": {\"N\": 1}, \"66\": {\"N\": 1}, \"67\": {\"N\": 1}, \"68\": {\"N\": 1}, \"69\": {\"N\": 1}, \"70\": {\"N\": 1}, \"71\": {\"N\": 1}, \"72\": {\"N\": 1}, \"73\": {\"N\": 1}, \"74\": {\"N\": 1}, \"75\": {\"N\": 1}, \"76\": {\"O\": 1}, \"77\": {\"O\": 1}, \"78\": {\"O\": 1}, \"79\": {\"O\": 1}, \"80\": {\"O\": 1}, \"81\": {\"O\": 1}, \"82\": {\"O\": 1}, \"83\": {\"O\": 1}, \"84\": {\"O\": 1}, \"85\": {\"O\": 1}, \"86\": {\"O\": 1}, \"87\": {\"O\": 1}, \"88\": {\"O\": 1}, \"89\": {\"O\": 1}, \"90\": {\"O\": 1}, \"91\": {\"O\": 1}}" energy=-593.8525390625 free_energy=-593.8525390625 stress="-2.8302398277446628e-05 1.24492962640943e-05 5.487958696903661e-05 1.24492962640943e-05 -5.0932731028296985e-06 -0.00015898258425295353 5.487958696903661e-05 -0.00015898258425295353 -0.00057297816965729" pbc="T T T"
Sr       2.70537382       2.31547783       5.27566486        0      -0.00453920       0.00395876       0.00803570
Sr       2.70516933       4.70489015      15.82882598        1       0.00664251      -0.01207319       0.00706674
Sr       2.70700956      11.72501141      15.83023276        2      -0.00388176      -0.00880320      -0.00556073
Sr       2.70661036       9.33390888       5.27677891        3      -0.00617626       0.02349210      -0.00527757
H        0.68113200       0.58595811       3.31942454        4       0.04588994       0.06394966      -0.01647239
H        4.73019783       0.58746529       7.23455636        5      -0.00228545       0.00867822      -0.00066026
H        4.72956009       6.43310302      13.87324573        6       0.03262398       0.06258599      -0.02890410
H        0.68088953       6.43148442      17.78627348        7       0.00483772       0.00579864       0.02192488
H        4.73106742      13.45294745      17.78744315        8      -0.03976913      -0.06547764       0.00537604
H        0.68031417      13.45267657      13.87416139        9       0.00161488       0.01925869      -0.01895504
H        0.68061606       7.60832102       7.23407147       10       0.01092643       0.02902113      -0.00402177
H        4.73041122       7.60695565       3.32000466       11      -0.05972824       0.09670640      -0.01937701
H        4.68905887       3.87074079       3.36585425       12      -0.03641132      -0.06649157      -0.00152700
H        0.72351945       3.87125480       7.18665861       13       0.00855221      -0.02197240       0.00312854
H        0.72370160       3.14763474      13.91806501       14       0.02011570       0.04381268       0.00201641
H        4.68833486       3.14787786      17.74055914       15       0.03559160      -0.04501558       0.01085664
H        0.72350775      10.16846255      17.73988563       16      -0.03200264      -0.05075578       0.00251452
H        4.68883918      10.16865070      13.91912649       17       0.01630156      -0.00494508      -0.00923121
H        4.68843401      10.89224377       7.18668007       18       0.00055309      -0.01086438       0.00884387
H        0.72378737      10.89126413       3.36488709       19      -0.03066722       0.03693337      -0.00531306
H        1.72054284       1.45737269       2.44211964       20      -0.06328104      -0.00817323       0.08010548
H        3.69205596       1.45664462       8.10899264       21       0.05394918      -0.00168029      -0.07567827
H        3.69551056       5.56119028      12.99393898       22       0.06401933       0.01904927       0.07730258
H        1.71804278       5.56357071      18.66412996       23      -0.02218901       0.00639702      -0.00929851
H        3.69436288      12.58288856      18.66116353       24      -0.06827092       0.00366408       0.13415211
H        1.72116347      12.58483044      12.99629793       25      -0.07914537       0.01293285       0.09953310
H        1.71812871       8.47471370       8.10892264       26      -0.02404223       0.01113078      -0.02824406
H        3.69387698       8.47695019       2.44257286       27      -0.03605701      -0.00270935      -0.08053262
H        5.05694561       2.38613371       3.23158009       28      -0.02566360       0.00002667      -0.00851426
H        0.35363790       2.38834848       7.32427872       29      -0.02441403      -0.03691610       0.01118559
H        0.35504848       4.63087272      13.78370681       30      -0.06727448       0.07143424      -0.02434123
H        5.05686877       4.63439498      17.87716753       31      -0.04212347      -0.04760733       0.00563641
H        0.35510937      11.65114207      17.87707482       32      -0.05643855       0.04814510       0.01814301
H        5.05811632      11.65392477      13.78411225       33       0.00491278      -0.00137027      -0.01635976
H        5.05978941       9.40703272       7.32067953       34      -0.05606642       0.03910526       0.00999519
H        0.35433983       9.40770249       3.23057978       35      -0.04476663      -0.03052581      -0.02499832
C        2.13731516       5.82697174       4.83536719       36      -0.17388535      -0.09504320      -0.05982152
C        3.27435053       5.82617215       5.71572616       37       0.18936609      -0.00764883       0.08382398
C        3.27864326       1.19758160      15.39005825       38      -0.08998638      -0.19484255       0.05369747
C        2.13579280       1.19540715      16.27155192       39       0.05931090      -0.09690411      -0.07745703
C        3.27533297       8.21254524      16.26897318       40       0.17993861       0.02767965       0.09136932
C        2.13572986       8.21257525      15.39121446       41      -0.13897890       0.04560541      -0.10367396
C        2.13775062      12.84884887       5.71545318       42      -0.09696321      -0.10684127       0.07051083
C        3.27811078      12.84800033       4.83648008       43      -0.00792514      -0.16627270      -0.00069363
N        1.53884019       4.71155075       4.37000322       44       0.05566108       0.12266836      -0.00420700
N        3.87190964       4.71269376       6.18292873       45      -0.06147569       0.00180194      -0.04877946
N        3.87053958       2.30686483      14.92019391       46       0.03630566       0.10748899       0.02935445
N        1.54059364       2.30558766      16.73620046       47      -0.03648213       0.09455135       0.04911089
N        3.87136266       9.32875351      16.73458824       48       0.00518538      -0.13698900      -0.00250489
N        1.53799109       9.32923915      14.92513730       49       0.11582655      -0.15263785       0.07062082
N        1.54199027      11.73480596       6.18225281       50       0.00235316      -0.04397482      -0.03385882
N        3.87048174      11.72978403       4.37037143       51       0.03354473       0.14991276       0.02056245
N        0.51195911       5.16468802       3.63733786       52      -0.13477588      -0.10517161      -0.06071962
N        4.90249197       5.15989311       6.91376561       53      -0.02769841       0.09351466       0.01764958
N        4.90401857       1.86044455      14.19297384       54      -0.00200328      -0.18420041      -0.05320618
N        0.50873896       1.85579372      17.46904699       55       0.02146566       0.07369083      -0.03618423
N        4.90342524       8.87990422      17.46543343       56      -0.01986386      -0.09366279       0.02733742
N        0.51162081       8.87628593      14.19357089       57      -0.13683797       0.14708281      -0.07097653
N        0.50792157      12.18248608       6.91256142       58       0.09872167      -0.07295766      -0.02778833
N        4.90311348      12.18013726       3.64198413       59       0.03089470       0.01246196      -0.07190850
N        0.49554635       6.48473807       3.65811999       60       0.17828037      -0.04903982       0.10288817
N        4.91142942       6.48260858       6.89402397       61       0.04048705      -0.03126002      -0.00931147
N        4.91290444       0.53478018      14.21656940       62       0.09483638       0.14357096      -0.06071029
N        0.49893474       0.53769749      17.44270516       63      -0.09061462      -0.11917618       0.09822512
N        4.91519535       7.55576286      17.44798025       64      -0.08029559       0.14437927      -0.09595391
N        0.49665073       7.55902177      14.21295963       65       0.10055646      -0.09769981       0.02932117
N        0.49960323      13.49989160       6.89298419       66      -0.03110118       0.15876049       0.00307695
N        4.91649864      13.50217211       3.65852593       67      -0.13440347      -0.08032617       0.11271672
N        1.51670233       6.93808341       4.40764688       68      -0.05173426       0.11626816      -0.04375477
N        3.89622460       6.93959209       6.14422391       69      -0.02102029      -0.03473654       0.02523246
N        3.89765076       0.07981666      14.96215146       70      -0.06101663       0.10278252       0.05605524
N        1.51628386       0.07937199      16.69971927       71       0.05680833       0.04878804      -0.05884816
N        3.89799482       7.09910099      16.69732233       72      -0.00292393       0.05572048       0.04346431
N        1.51746808       7.09909030      14.95839272       73      -0.02714787       0.05866653       0.01703576
N        1.51834297      13.95912111       6.14608604       74      -0.05871870       0.07240739       0.03801950
N        3.89470898      13.95790152       4.40859127       75       0.16087653       0.10371813      -0.11342115
O        4.26918749       2.96426995       3.37711974       76       0.08792469       0.07807887      -0.02417172
O        1.14009150       2.96496611       7.17628113       77       0.00981757       0.05670005       0.01244891
O        1.14046960       4.05465512      13.93028932       78       0.04171884      -0.11560068      -0.00633921
O        4.27143568       4.05154660      17.73216807       79       0.00862935       0.09653603       0.00750247
O        1.13901924      11.07289119      17.72859032       80       0.08433858       0.01155679       0.00497203
O        4.27216655      11.07385482      13.92662467       81      -0.01160592       0.00616147      -0.00023489
O        4.27093141       9.98684693       7.18030038       82       0.06093845      -0.03408374       0.00870320
O        1.13945094       9.98656704       3.37327312       83       0.07347634      -0.01479600       0.00846367
O        1.22303481       1.45232537       3.27924041       84       0.00261983      -0.06881550      -0.09251823
O        4.18966456       1.45182754       7.27204272       85      -0.03613135      -0.02193621       0.10521786
O        4.19352793       5.56945252      13.83058317       86      -0.10608640      -0.08545876      -0.07808104
O        1.21983331       5.56662295      17.82943898       87       0.01870903      -0.00353165       0.01372735
O        4.18756375      12.58769158      17.82751106       88       0.12966880       0.08390352      -0.11137627
O        1.22231361      12.59001627      13.83315305       89       0.07498068      -0.02449152      -0.10811891
O        1.22121801       8.47371555       7.27285826       90      -0.00263362      -0.05863492       0.05864479
O        4.18750729       8.47390134       3.27742342       91       0.10773137      -0.10842320       0.07231751
92
Lattice="5.41258678 0.0 0.0 0.00018969706845810015 14.040798108718558 0.0 -0.00019940686223693434 -0.0007221933220620307 21.106132426702292" Properties=species:S:1:pos:R:3:spacegroup_kinds:I:1:forces:R:3 spacegroup="P 1" unit_cell=conventional occupancy="_JSON {\"0\": {\"Sr\": 1}, \"1\": {\"Sr\": 1}, \"2\": {\"Sr\": 1}, \"3\": {\"Sr\": 1}, \"4\": {\"H\": 1}, \"5\": {\"H\": 1}, \"6\": {\"H\": 1}, \"7\": {\"H\": 1}, \"8\": {\"H\": 1}, \"9\": {\"H\": 1}, \"10\": {\"H\": 1}, \"11\": {\"H\": 1}, \"12\": {\"H\": 1}, \"13\": {\"H\": 1}, \"14\": {\"H\": 1}, \"15\": {\"H\": 1}, \"16\": {\"H\": 1}, \"17\": {\"H\": 1}, \"18\": {\"H\": 1}, \"19\": {\"H\": 1}, \"20\": {\"H\": 1}, \"21\": {\"H\": 1}, \"22\": {\"H\": 1}, \"23\": {\"H\": 1}, \"24\": {\"H\": 1}, \"25\": {\"H\": 1}, \"26\": {\"H\": 1}, \"27\": {\"H\": 1}, \"28\": {\"H\": 1}, \"29\": {\"H\": 1}, \"30\": {\"H\": 1}, \"31\": {\"H\": 1}, \"32\": {\"H\": 1}, \"33\": {\"H\": 1}, \"34\": {\"H\": 1}, \"35\": {\"H\": 1}, \"36\": {\"C\": 1}, \"37\": {\"C\": 1}, \"38\": {\"C\": 1}, \"39\": {\"C\": 1}, \"40\": {\"C\": 1}, \"41\": {\"C\": 1}, \"42\": {\"C\": 1}, \"43\": {\"C\": 1}, \"44\": {\"N\": 1}, \"45\": {\"N\": 1}, \"46\": {\"N\": 1}, \"47\": {\"N\": 1}, \"48\": {\"N\": 1}, \"49\": {\"N\": 1}, \"50\": {\"N\": 1}, \"51\": {\"N\": 1}, \"52\": {\"N\": 1}, \"53\": {\"N\": 1}, \"54\": {\"N\": 1}, \"55\": {\"N\": 1}, \"56\": {\"N\": 1}, \"57\": {\"N\": 1}, \"58\": {\"N\": 1}, \"59\": {\"N\": 1}, \"60\": {\"N\": 1}, \"61\": {\"N\": 1}, \"62\": {\"N\": 1}, \"63\": {\"N\": 1}, \"64\": {\"N\": 1}, \"65\": {\"N\": 1}, \"66\": {\"N\": 1}, \"67\": {\"N\": 1}, \"68\": {\"N\": 1}, \"69\": {\"N\": 1}, \"70\": {\"N\": 1}, \"71\": {\"N\": 1}, \"72\": {\"N\": 1}, \"73\": {\"N\": 1}, \"74\": {\"N\": 1}, \"75\": {\"N\": 1}, \"76\": {\"O\": 1}, \"77\": {\"O\": 1}, \"78\": {\"O\": 1}, \"79\": {\"O\": 1}, \"80\": {\"O\": 1}, \"81\": {\"O\": 1}, \"82\": {\"O\": 1}, \"83\": {\"O\": 1}, \"84\": {\"O\": 1}, \"85\": {\"O\": 1}, \"86\": {\"O\": 1}, \"87\": {\"O\": 1}, \"88\": {\"O\": 1}, \"89\": {\"O\": 1}, \"90\": {\"O\": 1}, \"91\": {\"O\": 1}}" energy=-593.8388061523438 free_energy=-593.8388061523438 stress="0.00010869846300920472 0.00010423083585919812 -0.0001582770491950214 0.00010423083585919812 4.6847206249367446e-05 -0.0004194208304397762 -0.0001582770491950214 -0.0004194208304397762 -0.0004734046815428883" pbc="T T T"
Sr       2.70523401       2.31594024       5.27583401        0      -0.01057886       0.00050663       0.00837306
Sr       2.70491943       4.70461143      15.82928510        1       0.00898567      -0.01609826       0.00021545
Sr       2.70683860      11.72556546      15.83116733        2      -0.00771794      -0.00971719       0.00056938
Sr       2.70595818       9.33220115       5.27719277        3      -0.00357438       0.02748651      -0.00050605
H        0.67860374       0.58630243       3.31650853        4       0.05402409       0.06347147      -0.00250330
H        4.72939737       0.58741242       7.23369212        5       0.00371723       0.03808163      -0.02526449
H        4.72702747       6.43521289      13.87442119        6       0.04893994       0.08978343      -0.04893301
H        0.68282367       6.43077073      17.78801374        7      -0.01792814       0.03889457       0.01507565
H        4.73006760      13.45126355      17.78903375        8      -0.00278914       0.00285954       0.00700952
H        0.67797024      13.45422011      13.87613750        9      -0.01084976       0.04331735      -0.01977520
H        0.68150713       7.60758035       7.23467830       10      -0.00179043       0.00408683      -0.01640492
H        4.73150925       7.60747079       3.31924112       11      -0.08528965       0.13322434      -0.01993043
H        4.68620421       3.86795777       3.36658433       12       0.02842082       0.08456736      -0.00982312
H        0.72331200       3.87044640       7.18710357       13      -0.00430365       0.01446323       0.00374430
H        0.72210524       3.14598596      13.91743592       14       0.06954355       0.13767408       0.00460477
H        4.69047659       3.14940252      17.74178699       15       0.00848809      -0.02156924       0.01162408
H        0.72567090      10.17027267      17.74074167       16      -0.13568228      -0.26532933       0.00483747
H        4.69006384      10.17016964      13.91985716       17       0.01952448      -0.05650752      -0.00804184
H        4.68880067      10.89215086       7.18716093       18      -0.01525317      -0.04095694       0.00882552
H        0.72108318      10.89174470       3.36483953       19       0.04447372      -0.10019542       0.00014949
H        1.72113338       1.45550253       2.44322521       20      -0.04159405       0.00047741       0.04454289
H        3.69361727       1.45393793       8.11056568       21       0.12478814       0.02127774      -0.21899480
H        3.69296323       5.56281747      12.99643202       22       0.00839202       0.02907570      -0.03046629
H        1.71936876       5.56566934      18.66193573       23       0.05980647       0.00006828       0.12411557
H        3.69323426      12.58515486      18.66376209       24      -0.06284691       0.00609845       0.12881008
H        1.71888404      12.58412381      12.99869469       25      -0.09848548       0.01681742       0.12653825
H        1.72097248       8.47252021       8.10733219       26      -0.04891545       0.01327453      -0.07594072
H        3.69190863       8.47920096       2.44495957       27      -0.04526367      -0.00620192      -0.09783515
H        5.05806830       2.38470865       3.23057105       28      -0.15873156       0.10390123       0.01416883
H        0.35074744       2.38825633       7.32205701       29      -0.00490065      -0.02333063       0.01021856
H        0.35567376       4.62985726      13.78121914       30      -0.08230147       0.09635602      -0.02908317
H        5.05793690       4.63458574      17.87522923       31      -0.01653540      -0.01370132       0.01756545
H        0.35471793      11.64889559      17.87915339       32      -0.10178569       0.07377971       0.02521023
H        5.05927796      11.65358791      13.78579772       33      -0.05646469      -0.02801184      -0.00547807
H        5.05846174       9.40922355       7.32013362       34       0.11083581      -0.09193872       0.03740749
H        0.35672477       9.40856917       3.22889314       35      -0.13430487      -0.11595955      -0.03981678
C        2.13464028       5.82828085       4.83574521       36      -0.04438397      -0.17185901       0.04031289
C        3.27664142       5.82498387       5.71341189       37       0.12049557       0.01551806       0.10640408
C        3.27572978       1.19532774      15.38805206       38       0.03989746      -0.03769681       0.00635638
C        2.13748632       1.19385147      16.26881626       39      -0.20776434       0.12558533       0.08316399
C        3.27256988       8.20999349      16.27035105       40       0.27107179       0.05787600       0.17332816
C        2.13397276       8.21073069      15.39379919       41      -0.18674195       0.10374859      -0.15425101
C        2.13844823      12.84660047       5.71263222       42      -0.21771625      -0.19263008       0.19524585
C        3.27994934      12.84518262       4.83593394       43      -0.09617345       0.07447798       0.04492481
N        1.53854085       4.70964785       4.37203593       44       0.02997702       0.25904351      -0.02713073
N        3.87064711       4.71015813       6.18208265       45       0.04227435       0.10641128       0.01346609
N        3.87242786       2.30424108      14.91868493       46      -0.05156609       0.23934916       0.06843504
N        1.53895050       2.30841645      16.73423698       47       0.00439736      -0.10392517       0.05661192
N        3.86838739       9.32957705      16.73593008       48       0.02788165      -0.30338526      -0.02832901
N        1.54036208       9.33196528      14.92673091       49       0.05253600      -0.32083070       0.04413980
N        1.53957261      11.73221363       6.18498218       50       0.06076818       0.02094375      -0.09615738
N        3.87097650      11.73189138       4.37183652       51       0.08126726      -0.02278818      -0.01686670
N        0.51323113       5.16526588       3.63811264       52      -0.17036469      -0.12826714      -0.11721876
N        4.90434176       5.16148350       6.91574896       53      -0.12078193      -0.04263312      -0.07413062
N        4.90611497       1.86336120      14.19375452       54      -0.04119582      -0.35302415      -0.02378963
N        0.50839775       1.85458343      17.47174504       55       0.09568731       0.16817525      -0.12586568
N        4.90275869       8.87846146      17.46278702       56      -0.00567128      -0.07983952       0.09130900
N        0.51221625       8.87692326      14.19327596       57      -0.07634297       0.23444299      -0.04632904
N        0.50533496      12.18381695       6.91537494       58       0.20432022      -0.15281036      -0.09501607
N        4.90289779      12.17936020       3.64371239       59       0.11266229       0.08835648      -0.11682797
N        0.49834991       6.48625415       3.65547113       60       0.10687500      -0.11359932       0.11622253
N        4.91404915       6.48084717       6.89141318       61       0.02190559       0.04043100       0.02997888
N        4.91512315       0.53481100      14.21709492       62       0.00832507       0.18550175       0.00828420
N        0.49987898       0.53754377      17.44185283       63      -0.16398086      -0.09479853       0.16958341
N        4.91497153       7.55320446      17.45053642       64      -0.13735968       0.24214117      -0.16750695
N        0.49541174       7.56143363      14.21129380       65       0.13375401      -0.13034724       0.07743579
N        0.50095093      13.49736884       6.89315094       66      -0.03188246       0.34550571      -0.01035357
N        4.91886294      13.50273330       3.65808478       67      -0.27278548      -0.09671971       0.19052875
N        1.51380651       6.93879179       4.41005187       68       0.01970199       0.13216621      -0.05781100
N        3.89750016       6.93936005       6.14448182       69      -0.02327786      -0.07631946      -0.02949190
N        3.89551238       0.08254918      14.96507332       70       0.11390890      -0.06830543      -0.09824701
N        1.51349263       0.08191307      16.69969050       71       0.18686663      -0.07048368      -0.14325595
N        3.89739692       7.09680029      16.69980082       72      -0.04578515       0.08608884       0.02493929
N        1.51461454       7.09798378      14.95993988       73      -0.04240718       0.11348233      -0.00616960
N        1.52100817      13.95796846       6.14348933       74      -0.11819816       0.00263837       0.07636596
N        3.89248142      13.96047902       4.40883344       75       0.27042282      -0.05026954      -0.17921668
O        4.26714892       2.96598033       3.37544641       76       0.16035482      -0.18049178      -0.04220302
O        1.13851717       2.96472344       7.17582680       77       0.01137596       0.00509338       0.01286323
O        1.14147778       4.05515403      13.92784781       78       0.01112700      -0.22930130      -0.00308256
O        4.27188078       4.05337805      17.73380388       79       0.00846460       0.03222300      -0.00270662
O        1.13616609      11.07011934      17.72907171       80       0.24159649       0.21388492      -0.00899500
O        4.27122060      11.07310415      13.92776289       81       0.04451686       0.09101119      -0.01178543
O        4.27323462       9.98501604       7.17990518       82      -0.09775797       0.12614310      -0.02113625
O        1.14070242       9.98390955       3.37176290       83       0.08431622       0.22020972       0.02051632
O        1.22197824       1.45221622       3.27841396       84      -0.02669179      -0.07085972      -0.06781098
O        4.19132590       1.45436249       7.26951524       85      -0.10348675      -0.08360499       0.27224275
O        4.19472409       5.57098531      13.82779733       86      -0.07435901      -0.13079125       0.04965787
O        1.22154421       5.56757640      17.83075160       87      -0.03307530      -0.03781427      -0.11305663
O        4.18663479      12.58941593      17.83007945       88       0.08130527       0.00843093      -0.10787885
O        1.21937297      12.59173913      13.83594983       89       0.11461953      -0.06518769      -0.13639458
O        1.22371701       8.47084065       7.27014438       90       0.04205635      -0.03270458       0.12533599
O        4.18578751       8.47454588       3.27920620       91       0.14296824      -0.14761730       0.08655326
92
Lattice="5.41258678 0.0 0.0 0.00018969706845810015 14.040798108718558 0.0 -0.00019940686223693434 -0.0007221933220620307 21.106132426702292" Properties=species:S:1:pos:R:3:spacegroup_kinds:I:1:forces:R:3 spacegroup="P 1" unit_cell=conventional occupancy="_JSON {\"0\": {\"Sr\": 1}, \"1\": {\"Sr\": 1}, \"2\": {\"Sr\": 1}, \"3\": {\"Sr\": 1}, \"4\": {\"H\": 1}, \"5\": {\"H\": 1}, \"6\": {\"H\": 1}, \"7\": {\"H\": 1}, \"8\": {\"H\": 1}, \"9\": {\"H\": 1}, \"10\": {\"H\": 1}, \"11\": {\"H\": 1}, \"12\": {\"H\": 1}, \"13\": {\"H\": 1}, \"14\": {\"H\": 1}, \"15\": {\"H\": 1}, \"16\": {\"H\": 1}, \"17\": {\"H\": 1}, \"18\": {\"H\": 1}, \"19\": {\"H\": 1}, \"20\": {\"H\": 1}, \"21\": {\"H\": 1}, \"22\": {\"H\": 1}, \"23\": {\"H\": 1}, \"24\": {\"H\": 1}, \"25\": {\"H\": 1}, \"26\": {\"H\": 1}, \"27\": {\"H\": 1}, \"28\": {\"H\": 1}, \"29\": {\"H\": 1}, \"30\": {\"H\": 1}, \"31\": {\"H\": 1}, \"32\": {\"H\": 1}, \"33\": {\"H\": 1}, \"34\": {\"H\": 1}, \"35\": {\"H\": 1}, \"36\": {\"C\": 1}, \"37\": {\"C\": 1}, \"38\": {\"C\": 1}, \"39\": {\"C\": 1}, \"40\": {\"C\": 1}, \"41\": {\"C\": 1}, \"42\": {\"C\": 1}, \"43\": {\"C\": 1}, \"44\": {\"N\": 1}, \"45\": {\"N\": 1}, \"46\": {\"N\": 1}, \"47\": {\"N\": 1}, \"48\": {\"N\": 1}, \"49\": {\"N\": 1}, \"50\": {\"N\": 1}, \"51\": {\"N\": 1}, \"52\": {\"N\": 1}, \"53\": {\"N\": 1}, \"54\": {\"N\": 1}, \"55\": {\"N\": 1}, \"56\": {\"N\": 1}, \"57\": {\"N\": 1}, \"58\": {\"N\": 1}, \"59\": {\"N\": 1}, \"60\": {\"N\": 1}, \"61\": {\"N\": 1}, \"62\": {\"N\": 1}, \"63\": {\"N\": 1}, \"64\": {\"N\": 1}, \"65\": {\"N\": 1}, \"66\": {\"N\": 1}, \"67\": {\"N\": 1}, \"68\": {\"N\": 1}, \"69\": {\"N\": 1}, \"70\": {\"N\": 1}, \"71\": {\"N\": 1}, \"72\": {\"N\": 1}, \"73\": {\"N\": 1}, \"74\": {\"N\": 1}, \"75\": {\"N\": 1}, \"76\": {\"O\": 1}, \"77\": {\"O\": 1}, \"78\": {\"O\": 1}, \"79\": {\"O\": 1}, \"80\": {\"O\": 1}, \"81\": {\"O\": 1}, \"82\": {\"O\": 1}, \"83\": {\"O\": 1}, \"84\": {\"O\": 1}, \"85\": {\"O\": 1}, \"86\": {\"O\": 1}, \"87\": {\"O\": 1}, \"88\": {\"O\": 1}, \"89\": {\"O\": 1}, \"90\": {\"O\": 1}, \"91\": {\"O\": 1}}" energy=-593.8278198242188 free_energy=-593.8278198242188 stress="0.0006695250631310046 -0.00013257832324597985 4.301934677641839e-05 -0.00013257832324597985 -0.00012469272769521922 -0.00022976446780376136 4.301934677641839e-05 -0.00022976446780376136 -0.00029511863249354064" pbc="T T T"
Sr       2.70462992       2.31696418       5.27498100        0      -0.00731057      -0.00109740       0.01663826
Sr       2.70634752       4.70326099      15.83034363        1       0.00077342      -0.01497030      -0.00347293
Sr       2.70663871      11.72522174      15.82995960        2      -0.01484060      -0.01595774       0.00694463
Sr       2.70870423       9.33488792       5.27637935        3      -0.01811610       0.00487525       0.00125837
H        0.68151663       0.58774451       3.31843806        4       0.02517186       0.02708986       0.01377833
H        4.73066001       0.58488654       7.23383633        5      -0.06419748       0.18218760      -0.03666151
H        4.72968462       6.43810639      13.87629737        6      -0.03393421      -0.04180007      -0.07368335
H        0.68026232       6.42830013      17.78706791        7      -0.03405218       0.10690966       0.04412713
H        4.72989813      13.45196293      17.78906490        8      -0.04517686      -0.08923303      -0.01532161
H        0.68038788      13.45436618      13.87826116        9      -0.04302533       0.09549783      -0.04120976
H        0.67989381       7.60655727       7.23351538       10      -0.00166044      -0.01721589      -0.00198492
H        4.72917779       7.60465320       3.32210482       11      -0.10726151       0.19197597      -0.02340160
H        4.68563265       3.86576946       3.36429643       12       0.04992698       0.16134986      -0.01069497
H        0.72196307       3.86971178       7.18842739       13       0.00228077       0.01647255       0.00197204
H        0.72375793       3.14751096      13.91551790       14       0.05846116       0.09471396       0.00998364
H        4.68808404       3.14841482      17.74020180       15       0.02138323      -0.01051860       0.01789642