62
Lattice="6.61224085 0.0 0.0 3.57615745994172 10.58107450128226 0.0 2.8019561655831007 1.3135413834231955 17.425568085391777" Properties=species:S:1:pos:R:3:spacegroup_kinds:I:1:forces:R:3 spacegroup="P 1" unit_cell=conventional occupancy="_JSON {\"0\": {\"Al\": 1}, \"1\": {\"Al\": 1}, \"2\": {\"H\": 1}, \"3\": {\"H\": 1}, \"4\": {\"H\": 1}, \"5\": {\"H\": 1}, \"6\": {\"H\": 1}, \"7\": {\"H\": 1}, \"8\": {\"H\": 1}, \"9\": {\"H\": 1}, \"10\": {\"H\": 1}, \"11\": {\"H\": 1}, \"12\": {\"H\": 1}, \"13\": {\"H\": 1}, \"14\": {\"H\": 1}, \"15\": {\"H\": 1}, \"16\": {\"H\": 1}, \"17\": {\"H\": 1}, \"18\": {\"H\": 1}, \"19\": {\"H\": 1}, \"20\": {\"H\": 1}, \"21\": {\"H\": 1}, \"22\": {\"C\": 1}, \"23\": {\"C\": 1}, \"24\": {\"C\": 1}, \"25\": {\"C\": 1}, \"26\": {\"C\": 1}, \"27\": {\"C\": 1}, \"28\": {\"C\": 1}, \"29\": {\"C\": 1}, \"30\": {\"C\": 1}, \"31\": {\"C\": 1}, \"32\": {\"C\": 1}, \"33\": {\"C\": 1}, \"34\": {\"C\": 1}, \"35\": {\"C\": 1}, \"36\": {\"C\": 1}, \"37\": {\"C\": 1}, \"38\": {\"C\": 1}, \"39\": {\"C\": 1}, \"40\": {\"C\": 1}, \"41\": {\"C\": 1}, \"42\": {\"C\": 1}, \"43\": {\"C\": 1}, \"44\": {\"C\": 1}, \"45\": {\"C\": 1}, \"46\": {\"C\": 1}, \"47\": {\"C\": 1}, \"48\": {\"C\": 1}, \"49\": {\"C\": 1}, \"50\": {\"C\": 1}, \"51\": {\"C\": 1}, \"52\": {\"O\": 1}, \"53\": {\"O\": 1}, \"54\": {\"O\": 1}, \"55\": {\"O\": 1}, \"56\": {\"O\": 1}, \"57\": {\"O\": 1}, \"58\": {\"O\": 1}, \"59\": {\"O\": 1}, \"60\": {\"O\": 1}, \"61\": {\"O\": 1}}" energy=-434.09197998046875 free_energy=-434.09197998046875 stress="-0.0005697955493815243 5.104683805257082e-05 2.290692282258533e-05 5.104683805257082e-05 0.0005391053855419159 0.00012795612565241754 2.290692282258533e-05 0.00012795612565241754 -0.0001862676435848698" pbc="T T T"
Al       6.38324497       5.93584192       8.71092116        0      -0.03149049      -0.03808522       0.00969825
Al       9.68714929       5.94573351       8.69489198        1       0.01865505       0.03408553       0.00345509
H        4.69755351       4.37756000       9.47856972        2       0.00406785      -0.02199726       0.05336051
H        8.05584385       7.53889616       8.06191171        3       0.01654111      -0.10716701       0.00215806
H        6.83020290       6.29320134       4.73732858        4      -0.00428119      -0.01718664      -0.00818278
H        6.98994420       6.14871688       2.24286453        5      -0.00963859      -0.00753957      -0.01866285
H        2.84563153       4.95185687       2.07326083        6       0.00424674       0.00939903       0.00918178
H        2.69828861       5.14042712       4.56479231        7      -0.01108563       0.00010302       0.01799255
H       10.01379921       7.07881259      15.24825742        8      -0.00140078      -0.00130018      -0.00695094
H       10.10769222       6.80209095      12.75980083        9      -0.04768471      -0.00664257       0.01776324
H        5.95163854       5.72438499      12.70687930       10      -0.00321478       0.00458252       0.00311424
H        5.84696684       5.95780947      15.19749575       11       0.02439570       0.01256336      -0.01629980
H        3.56156653       2.98326780       6.99873828       12      -0.04645214      -0.04566003       0.05495808
H        6.75603677       8.62367447       6.95261511       13      -0.03433931       0.05052295       0.00969369
H        9.58074672      10.08304204       9.48674346       14      -0.04750709      -0.02471395      -0.00465182
H        6.09204809       1.99348597       9.36838577       15      -0.00208427      -0.02162397      -0.00591383
H        6.53619575       1.50699307       5.97440891       16      -0.02382545       0.04230801      -0.00525160
H        5.49768828       2.91713850       5.69611190       17       0.08232699       0.08155094      -0.04813649
H        5.52700962       1.57599722       4.52643847       18      -0.00550792       0.04591398      -0.01614003
H        8.89634719       9.70818609       4.50046226       19      -0.02869937      -0.01059449      -0.00290964
H        8.68349644       8.39411214       5.68532782       20       0.07217342       0.00184496      -0.04903790
H        9.92426867       9.64027999       5.93680712       21       0.01975092      -0.02854885       0.00864135
C        7.99362305       3.53622461       8.47628420       22       0.09321472      -0.12880313      -0.06359141
C        8.08610378       6.08056855      11.11463422       23       0.07838979      -0.01963471      -0.05072075
C        4.79100934       8.34586298       8.68554199       24       0.11113172       0.12686399      -0.07200365
C        4.68385242       5.84107277       6.27671821       25      -0.01026498      -0.03635168      -0.05176789
C        4.75634502       5.72923771       4.78954113       26       0.06073590       0.04302522       0.07955275
C        5.96741445       6.00695642       4.13541172       27      -0.02808848      -0.00689980       0.00551733
C        6.05390901       5.92178268       2.75334740       28      -0.02753937      -0.01292560      -0.03313705
C        4.92512426       5.54154396       1.99207159       29      -0.00223098      -0.00365643       0.05740662
C        3.71259417       5.25555443       2.66110420       30       0.00749112       0.00010002      -0.08831385
C        3.63004695       5.35559643       4.04249620       31       0.00462526       0.00624045       0.04494905
C        5.00497875       5.44275451       0.58259494       32      -0.00388134       0.01064342       0.11242795
C        7.86518405       6.66223224      16.79420131       33       0.02533135      -0.01718691      -0.13028502
C        7.92475228       6.53338284      15.38520949       34      -0.01948358       0.00999370       0.00970210
C        9.12904578       6.77602899      14.68800223       35      -0.03194808      -0.02661236      -0.03690746
C        9.18117917       6.62558415      13.30791261       36       0.06252585       0.00910361      -0.01017405
C        8.03524199       6.24465738      12.59317882       37      -0.00391638       0.01397256       0.05653975
C        6.83202671       6.01625487      13.27877864       38      -0.00975475       0.00134781      -0.00867173
C        6.77503194       6.15206613      14.65817593       39       0.01382791      -0.00447027       0.02653942
C        7.98573613       2.04744654       8.37389137       40      -0.00767051      -0.03568529      -0.06308598
C        2.41751730       1.29706421       7.73871059       41      -0.03781021       0.05965060       0.04843139
C        6.89531609       1.39615880       8.93934361       42      -0.02094303      -0.04508421       0.08494243
C        3.48918066       1.89508482       7.02477453       43      -0.02607041      -0.08649791       0.04604581
C        4.43782544       1.14725089       6.34243795       44       0.00056508      -0.02705067      -0.04247884
C        4.83185359       9.82056734       8.46298747       45      -0.03385928      -0.04967345       0.04424331
C       10.41495130      10.58264153       8.99848125       46       0.03108782       0.09655390       0.04962508
C        5.91089553      10.44444705       7.76097822       47       0.00798547      -0.00462431       0.06275296
C        6.86841413       9.70456681       7.02185594       48      -0.04120887       0.08052230       0.00191208
C        7.90801893      10.30517167       6.33182335       49       0.04404559       0.07282788      -0.04743232
C        5.55253190       1.82945936       5.59784872       50       0.01081116      -0.01888649      -0.00224708
C        8.90009734       9.46400874       5.57391622       51      -0.02733701      -0.03864017       0.00806102
O        6.87077646       4.12227282       8.35898709       52      -0.07608987       0.09363943       0.05865252
O        9.22138126       6.21392593      10.54605438       53      -0.08996007      -0.00535054       0.01209378
O       10.27538155       7.76980462       8.57221317       54      -0.11779019      -0.07398926       0.02921154
O        5.77476550       6.10806820       6.88141860       55       0.00462428       0.01396687       0.01734266
O        5.88361333       7.76523548       8.98690432       56       0.05791879       0.02988981      -0.03933523
O        3.54680652       5.66974433       6.82856194       57       0.01934052      -0.03354564      -0.00344136
O        9.10101911       4.11825705       8.72328149       58       0.00622678      -0.02815324      -0.05475853
O        6.98869608       5.80226143      10.52632940       59      -0.04444678       0.01494967      -0.04095680
O        4.72332584       5.32142415       9.26180858       60       0.05978110      -0.00734267      -0.06557466
O        8.03305696       6.56921543       8.14053134       61       0.01568811       0.07595869       0.04105469
62
Lattice="6.61224085 0.0 0.0 3.57615745994172 10.58107450128226 0.0 2.8019561655831007 1.3135413834231955 17.425568085391777" Properties=species:S:1:pos:R:3:spacegroup_kinds:I:1:forces:R:3 spacegroup="P 1" unit_cell=conventional occupancy="_JSON {\"0\": {\"Al\": 1}, \"1\": {\"Al\": 1}, \"2\": {\"H\": 1}, \"3\": {\"H\": 1}, \"4\": {\"H\": 1}, \"5\": {\"H\": 1}, \"6\": {\"H\": 1}, \"7\": {\"H\": 1}, \"8\": {\"H\": 1}, \"9\": {\"H\": 1}, \"10\": {\"H\": 1}, \"11\": {\"H\": 1}, \"12\": {\"H\": 1}, \"13\": {\"H\": 1}, \"14\": {\"H\": 1}, \"15\": {\"H\": 1}, \"16\": {\"H\": 1}, \"17\": {\"H\": 1}, \"18\": {\"H\": 1}, \"19\": {\"H\": 1}, \"20\": {\"H\": 1}, \"21\": {\"H\": 1}, \"22\": {\"C\": 1}, \"23\": {\"C\": 1}, \"24\": {\"C\": 1}, \"25\": {\"C\": 1}, \"26\": {\"C\": 1}, \"27\": {\"C\": 1}, \"28\": {\"C\": 1}, \"29\": {\"C\": 1}, \"30\": {\"C\": 1}, \"31\": {\"C\": 1}, \"32\": {\"C\": 1}, \"33\": {\"C\": 1}, \"34\": {\"C\": 1}, \"35\": {\"C\": 1}, \"36\": {\"C\": 1}, \"37\": {\"C\": 1}, \"38\": {\"C\": 1}, \"39\": {\"C\": 1}, \"40\": {\"C\": 1}, \"41\": {\"C\": 1}, \"42\": {\"C\": 1}, \"43\": {\"C\": 1}, \"44\": {\"C\": 1}, \"45\": {\"C\": 1}, \"46\": {\"C\": 1}, \"47\": {\"C\": 1}, \"48\": {\"C\": 1}, \"49\": {\"C\": 1}, \"50\": {\"C\": 1}, \"51\": {\"C\": 1}, \"52\": {\"O\": 1}, \"53\": {\"O\": 1}, \"54\": {\"O\": 1}, \"55\": {\"O\": 1}, \"56\": {\"O\": 1}, \"57\": {\"O\": 1}, \"58\": {\"O\": 1}, \"59\": {\"O\": 1}, \"60\": {\"O\": 1}, \"61\": {\"O\": 1}}" energy=-434.0938415527344 free_energy=-434.0938415527344 stress="-0.00048287329263985157 8.489417814416811e-05 5.691593105439097e-05 8.489417814416811e-05 0.00030760944355279207 0.00017538521206006408 5.691593105439097e-05 0.00017538521206006408 2.584090907475911e-05" pbc="T T T"
Al       6.38154459       5.93480231       8.71101861        0      -0.04802514      -0.03115701       0.01278248
Al       9.68580931       5.94639537       8.69539572        1       0.02275865       0.02486938       0.00064762
H        4.69643403       4.37791111       9.47995214        2       0.00086583      -0.12296709       0.07545227
H        8.05421231       7.53804953       8.06335743        3       0.01301813      -0.07301360      -0.00114243
H        6.82992430       6.29366919       4.73647121        4      -0.02592815      -0.02044885      -0.02061206
H        6.98899244       6.14872982       2.24237204        5       0.01435235      -0.00072433      -0.03905100
H        2.84479456       4.95208339       2.07233208        6      -0.02160235       0.00090070      -0.01028502
H        2.69756807       5.14113670       4.56390257        7      -0.03191660      -0.00189160       0.03250779
H       10.01329266       7.07904964      15.24780245        8      -0.03235067      -0.01004218      -0.02771126
H       10.10531911       6.80209269      12.75872150        9      -0.00589369       0.00507899      -0.00198966
H        5.95112789       5.72474861      12.70659066       10      -0.01320648       0.00164345      -0.00431331
H        5.84579634       5.95873736      15.19592382       11      -0.00158401       0.00892887       0.00958888
H        3.55952875       2.98268161       7.00003319       12      -0.04304421      -0.05663699       0.05151388
H        6.75400235       8.62445735       6.95256823       13      -0.03030859       0.09381144       0.01454850
H        9.57868487      10.08239076       9.48627425       14      -0.01164015       0.00481368      -0.02297007
H        6.09148869       1.99381971       9.36739368       15      -0.03278160      -0.00316559       0.01020726
H        6.53428896       1.50840249       5.97304357       16      -0.00477551       0.03231947       0.00702997
H        5.49880032       2.91933129       5.69475542       17       0.06641453       0.06760184      -0.04065804
H        5.52635132       1.57722772       4.52517848       18      -0.00579936       0.05590894       0.01540858
H        8.89448506       9.70893968       4.49946425       19      -0.02002954      -0.01716738       0.00512143
H        8.68335997       8.39480113       5.68405638       20       0.05697624      -0.02703016      -0.04202444
H        9.92356964       9.64033349       5.93667707       21       0.00017748      -0.03032177      -0.00394865
C        7.99268226       3.53515607       8.47519554       22       0.00256136      -0.08298410      -0.07114349
C        8.08419801       6.08164196      11.11360734       23       0.01171399      -0.03381494       0.03592604
C        4.79021419       8.34810866       8.68574109       24       0.05871295       0.04150501      -0.06648053
C        4.68192770       5.84278953       6.27511653       25      -0.00549351      -0.04914992       0.03828275
C        4.75499746       5.73004469       4.78925407       26       0.06796233       0.05943356       0.04536027
C        5.96606234       6.00827394       4.13429265       27      -0.00066829      -0.00885656      -0.00262986
C        6.05331243       5.92268988       2.75163731       28      -0.07530083      -0.02236066       0.04166290
C        4.92343072       5.54184823       1.99203757       29       0.02306417      -0.00092244       0.00008934
C        3.71102241       5.25607470       2.65903742       30       0.02204527       0.01608973       0.04831953
C        3.62879649       5.35705540       4.04260710       31       0.01223040      -0.00825036      -0.05685693
C        5.00324997       5.44235928       0.58227262       32       0.00445683       0.00530402      -0.02008620
C        7.86370905       6.66312572      16.79232853       33       0.02623109      -0.00647068       0.02703497
C        7.92344033       6.53446023      15.38381084       34      -0.01254618       0.01496251       0.01900815
C        9.12774545       6.77696155      14.68609298       35       0.00668427      -0.00971036       0.02777684
C        9.18038378       6.62715249      13.30710869       36       0.01410827      -0.01211244      -0.02330224
C        8.03397052       6.24567844      12.59311678       37      -0.01498084       0.01526196       0.02770856
C        6.83111941       6.01699122      13.27814536       38      -0.00874929       0.00980416       0.04161920
C        6.77362178       6.15342423      14.65862674       39       0.03041897      -0.01312731      -0.06333357
C        7.98391838       2.04804964       8.37235419       40      -0.00793645      -0.08952599      -0.04343214
C        2.41676093       1.29728031       7.73858443       41      -0.07700859       0.08325854       0.06972969
C        6.89339782       1.39603746       8.93942516       42       0.03537095       0.03089632       0.04575273
C        3.48730970       1.89413665       7.02521567       43       0.02652166      -0.05800376       0.00291775
C        4.43660089       1.14696136       6.34035374       44      -0.01916943       0.04594784      -0.00594302
C        4.83173425       9.82126278       8.46362432       45      -0.09778975       0.00797737       0.06032496
C       10.41363688      10.58475887       8.99876131       46       0.02755509      -0.04539087       0.05480029
C        5.91024201      10.44548342       7.76160581       47      -0.00932598      -0.02637099       0.07028714
C        6.86599085       9.70669320       7.02231946       48       0.06229567       0.03294104      -0.07418364
C        7.90771584      10.30682059       6.32964837       49      -0.04671255      -0.01199684       0.01473700
C        5.55102941       1.83107780       5.59774921       50       0.01035190      -0.01664034      -0.06352880
C        8.89886635       9.46383261       5.57304700       51       0.00245856       0.00764313      -0.00308856
O        6.86834598       4.12126960       8.35926522       52      -0.04099718       0.07873291       0.06035380
O        9.21907246       6.21379713      10.54777202       53      -0.02132531      -0.00195286      -0.06216860
O       10.27384826       7.76957679       8.57318491       54      -0.05580941      -0.01817882       0.03276764
O        5.77338983       6.10894969       6.88111208       55      -0.03286769       0.00870799      -0.00440559
O        5.88275539       7.76734727       8.98657341       56       0.05751540       0.01190200      -0.04124797
O        3.54469911       5.67044828       6.82833861       57       0.05938079      -0.02127952      -0.03080913
O        9.09864309       4.11814668       8.72118408       58       0.05205834      -0.00869428      -0.04193909
O        6.98596066       5.80330462      10.52638247       59      -0.02969975       0.01783323      -0.04580539
O        4.72133363       5.31959492       9.26320127       60       0.06189921       0.11122634      -0.10074730
O        8.03062998       6.56917142       8.14268209       61       0.03510621       0.04505554       0.03656972
62
Lattice="6.61224085 0.0 0.0 3.57615745994172 10.58107450128226 0.0 2.8019561655831007 1.3135413834231955 17.425568085391777" Properties=species:S:1:pos:R:3:spacegroup_kinds:I:1:forces:R:3 spacegroup="P 1" unit_cell=conventional occupancy="_JSON {\"0\": {\"Al\": 1}, \"1\": {\"Al\": 1}, \"2\": {\"H\": 1}, \"3\": {\"H\": 1}, \"4\": {\"H\": 1}, \"5\": {\"H\": 1}, \"6\": {\"H\": 1}, \"7\": {\"H\": 1}, \"8\": {\"H\": 1}, \"9\": {\"H\": 1}, \"10\": {\"H\": 1}, \"11\": {\"H\": 1}, \"12\": {\"H\": 1}, \"13\": {\"H\": 1}, \"14\": {\"H\": 1}, \"15\": {\"H\": 1}, \"16\": {\"H\": 1}, \"17\": {\"H\": 1}, \"18\": {\"H\": 1}, \"19\": {\"H\": 1}, \"20\": {\"H\": 1}, \"21\": {\"H\": 1}, \"22\": {\"C\": 1}, \"23\": {\"C\": 1}, \"24\": {\"C\": 1}, \"25\": {\"C\": 1}, \"26\": {\"C\": 1}, \"27\": {\"C\": 1}, \"28\": {\"C\": 1}, \"29\": {\"C\": 1}, \"30\": {\"C\": 1}, \"31\": {\"C\": 1}, \"32\": {\"C\": 1}, \"33\": {\"C\": 1}, \"34\": {\"C\": 1}, \"35\": {\"C\": 1}, \"36\": {\"C\": 1}, \"37\": {\"C\": 1}, \"38\": {\"C\": 1}, \"39\": {\"C\": 1}, \"40\": {\"C\": 1}, \"41\": {\"C\": 1}, \"42\": {\"C\": 1}, \"43\": {\"C\": 1}, \"44\": {\"C\": 1}, \"45\": {\"C\": 1}, \"46\": {\"C\": 1}, \"47\": {\"C\": 1}, \"48\": {\"C\": 1}, \"49\": {\"C\": 1}, \"50\": {\"C\": 1}, \"51\": {\"C\": 1}, \"52\": {\"O\": 1}, \"53\": {\"O\": 1}, \"54\": {\"O\": 1}, \"55\": {\"O\": 1}, \"56\": {\"O\": 1}, \"57\": {\"O\": 1}, \"58\": {\"O\": 1}, \"59\": {\"O\": 1}, \"60\": {\"O\": 1}, \"61\": {\"O\": 1}}" energy=-434.09490966796875 free_energy=-434.09490966796875 stress="-0.0003703151596710086 0.0001482638908782974 0.0001060369104379788 0.0001482638908782974 0.00034438216243870556 0.00011347662803018466 0.0001060369104379788 0.00011347662803018466 -0.00012157757737440988" pbc="T T T"
Al       6.37872893       5.93564104       8.71167906        0      -0.01687446      -0.02895975      -0.01304171
Al       9.68311690       5.94654410       8.69601643        1       0.04703023       0.02966021      -0.00287554
H        4.69441877       4.37753501       9.48144217        2       0.00866804       0.04620081       0.03517069
H        8.05291453       7.53747395       8.06466709        3       0.01579351      -0.00767881      -0.00712022
H        6.82944455       6.29424635       4.73433514        4      -0.00987893      -0.01595782      -0.00553223
H        6.98835389       6.14904134       2.24000273        5      -0.04475395      -0.01378531       0.00545564
H        2.84324789       4.95260109       2.07098539        6      -0.01574776       0.00271238      -0.00285327
H        2.69638906       5.14209517       4.56343466        7      -0.01430367       0.00148073       0.01683523
H       10.01080182       7.07893880      15.24571219        8       0.02080664       0.01038029       0.01221845
H       10.10468295       6.80249626      12.75837475        9      -0.02264169       0.00269478       0.00186936
H        5.94994189       5.72549293      12.70581883       10      -0.02008805       0.00293541      -0.00293210
H        5.84529106       5.95940346      15.19526965       11       0.00776052       0.00912782       0.00210681
H        3.55891218       2.98142224       7.00045248       12      -0.03715408      -0.02171645       0.04783735
H        6.75254072       8.62670970       6.95286043       13      -0.02293262       0.05920114       0.00351522
H        9.57764834      10.08289413       9.48515338       14      -0.02100709       0.00146358      -0.01115605
H        6.09012172       1.99399312       9.36644425       15      -0.03162235       0.00703757       0.01167405
H        6.53336927       1.51008159       5.97234981       16       0.00222553       0.02156261       0.00897248
H        5.49911337       2.92135663       5.69447462       17       0.05980080       0.03713964      -0.04337395
H        5.52481972       1.57884130       4.52491834       18      -0.00012642       0.05206243      -0.00814544
H        8.89375093       9.70920217       4.49802675       19      -0.02334009      -0.01975321       0.02686695
H        8.68293241       8.39460305       5.68331538       20       0.05982712      -0.00423528      -0.04327731
H        9.92258286       9.64056225       5.93488936       21       0.01973386      -0.02349137       0.00751102
C        7.99065257       3.53306857       8.47313507       22       0.05425790       0.08577642      -0.01373293
C        8.08271061       6.08395458      11.11208779       23       0.02172337      -0.04869054       0.08630806
C        4.79027474       8.34950156       8.68529404       24      -0.08834969      -0.03898041      -0.05593599
C        4.67955680       5.84275361       6.27661650       25       0.09864110      -0.02799651      -0.12424266
C        4.75430525       5.73169458       4.79007761       26       0.01835176       0.02563821      -0.02654163
C        5.96520796       6.00872457       4.13392256       27      -0.02958946      -0.00419637       0.03620508
C        6.05136786       5.92329005       2.75198421       28      -0.00040581      -0.01464449      -0.05280496
C        4.92271475       5.54224869       1.99114761       29      -0.01555416      -0.00776178       0.02770702
C        3.70934337       5.25665200       2.65836446       30       0.04804919       0.01642629      -0.00139502
C        3.62784739       5.35781890       4.04079841       31       0.02499333       0.00943910       0.04534550
C        5.00179955       5.44195900       0.58171339       32       0.01313477       0.01587559      -0.03356937
C        7.86210471       6.66504718      16.79150341       33       0.02140618      -0.02293984       0.02443066
C        7.92173617       6.53439690      15.38282630       34       0.03440985       0.04344292       0.04369558
C        9.12639999       6.77786520      14.68579454       35      -0.05027329      -0.03970702      -0.03316480
C        9.17884140       6.62777796      13.30624633       36       0.02953145      -0.00354323       0.00067149
C        8.03218629       6.24697997      12.59278168       37      -0.00790010       0.01859901      -0.00978905
C        6.82934033       6.01812571      13.27779009       38       0.01211175       0.00427496      -0.00100581
C        6.77333062       6.15372200      14.65730672       39      -0.03307544      -0.02183921      -0.01996705
C        7.98319562       2.04607118       8.37074808       40      -0.04503908       0.01403253      -0.02427837
C        2.41582858       1.29793319       7.73826962       41      -0.04619543      -0.00958522       0.04159324
C        6.89257325       1.39658259       8.93959245       42       0.02477953       0.00161322       0.03905843
C        3.48707826       1.89387218       7.02452338       43      -0.01418325      -0.05922608       0.02196408
C        4.43471422       1.14738150       6.33865973       44       0.03107311       0.05553184      -0.00851808
C        4.82917711       9.82271386       8.46422982       45       0.00859601      -0.04981287       0.01367142
C       10.41289040      10.58566801       8.99941270       46      -0.01962867      -0.02492456       0.07115337
C        5.90866546      10.44495069       7.76128057       47       0.00607205       0.04387511       0.05994660
C        6.86557862       9.70803383       7.02065660       48      -0.01033361       0.01366310      -0.01028665
C        7.90657987      10.30735007       6.32922321       49      -0.00256984      -0.00175995      -0.03085685
C        5.55045925       1.83215402       5.59674109       50      -0.01726002       0.01154575      -0.03582482
C        8.89825206       9.46444332       5.57241582       51      -0.02677222      -0.01457998      -0.02720733
O        6.86571018       4.12303722       8.36136989       52       0.07643789      -0.02405730       0.04994228
O        9.21964038       6.21509843      10.54851171       53      -0.08594551      -0.01215726      -0.06731945
O       10.27144581       7.77013432       8.57362206       54       0.05038491       0.04309317       0.03276888
O        5.77079234       6.10898287       6.87969472       55       0.07029502       0.02942973       0.08129543
O        5.88126503       7.76672614       8.98628394       56       0.06014929       0.05488081      -0.04981717
O        3.54561932       5.67107102       6.82802238       57      -0.13297513      -0.05036150       0.06578356
O        9.09929723       4.11743089       8.72120860       58      -0.09658663      -0.08976994      -0.08729966
O        6.98336030       5.80511130      10.52646690       59       0.01661979       0.03161366      -0.04925597
O        4.72083531       5.32228866       9.26224582       60       0.01954113      -0.07542135      -0.04740171
O        8.02910101       6.57011407       8.14498770       61       0.02090314      -0.02487810       0.02894910
62
Lattice="6.61224085 0.0 0.0 3.57615745994172 10.58107450128226 0.0 2.8019561655831007 1.3135413834231955 17.425568085391777" Properties=species:S:1:pos:R:3:spacegroup_kinds:I:1:forces:R:3 spacegroup="P 1" unit_cell=conventional occupancy="_JSON {\"0\": {\"Al\": 1}, \"1\": {\"Al\": 1}, \"2\": {\"H\": 1}, \"3\": {\"H\": 1}, \"4\": {\"H\": 1}, \"5\": {\"H\": 1}, \"6\": {\"H\": 1}, \"7\": {\"H\": 1}, \"8\": {\"H\": 1}, \"9\": {\"H\": 1}, \"10\": {\"H\": 1}, \"11\": {\"H\": 1}, \"12\": {\"H\": 1}, \"13\": {\"H\": 1}, \"14\": {\"H\": 1}, \"15\": {\"H\": 1}, \"16\": {\"H\": 1}, \"17\": {\"H\": 1}, \"18\": {\"H\": 1}, \"19\": {\"H\": 1}, \"20\": {\"H\": 1}, \"21\": {\"H\": 1}, \"22\": {\"C\": 1}, \"23\": {\"C\": 1}, \"24\": {\"C\": 1}, \"25\": {\"C\": 1}, \"26\": {\"C\": 1}, \"27\": {\"C\": 1}, \"28\": {\"C\": 1}, \"29\": {\"C\": 1}, \"30\": {\"C\": 1}, \"31\": {\"C\": 1}, \"32\": {\"C\": 1}, \"33\": {\"C\": 1}, \"34\": {\"C\": 1}, \"35\": {\"C\": 1}, \"36\": {\"C\": 1}, \"37\": {\"C\": 1}, \"38\": {\"C\": 1}, \"39\": {\"C\": 1}, \"40\": {\"C\": 1}, \"41\": {\"C\": 1}, \"42\": {\"C\": 1}, \"43\": {\"C\": 1}, \"44\": {\"C\": 1}, \"45\": {\"C\": 1}, \"46\": {\"C\": 1}, \"47\": {\"C\": 1}, \"48\": {\"C\": 1}, \"49\": {\"C\": 1}, \"50\": {\"C\": 1}, \"51\": {\"C\": 1}, \"52\": {\"O\": 1}, \"53\": {\"O\": 1}, \"54\": {\"O\": 1}, \"55\": {\"O\": 1}, \"56\": {\"O\": 1}, \"57\": {\"O\": 1}, \"58\": {\"O\": 1}, \"59\": {\"O\": 1}, \"60\": {\"O\": 1}, \"61\": {\"O\": 1}}" energy=-434.0959167480469 free_energy=-434.0959167480469 stress="-0.0004703119629994035 5.066176163381897e-05 9.47121880017221e-05 5.066176163381897e-05 0.00038391861016862094 0.00011943627032451332 9.47121880017221e-05 0.00011943627032451332 -0.00023058355145622045" pbc="T T T"
Al       6.37656940       5.93515896       8.71124728        0      -0.01441381      -0.00100643      -0.00457765
Al       9.68100628       5.94626355       8.69588372        1       0.05153149       0.04621219       0.00571965
H        4.69262957       4.37865199       9.48134814        2       0.00736707      -0.01664339       0.05151084
H        8.05251268       7.53885836       8.06353463        3       0.00419384      -0.05521992      -0.00127795
H        6.82851347       6.29441632       4.73351191        4      -0.00090533      -0.01421908      -0.00028862
H        6.98654032       6.14946900       2.23881107        5      -0.04089737      -0.01382587      -0.00102657
H        2.84203389       4.95341288       2.07019539        6       0.00406677       0.01025771       0.01267468
H        2.69512056       5.14234546       4.56216520        7       0.00461139       0.00747272       0.01364056
H       10.00997062       7.08007406      15.24476669        8       0.00411534       0.00218317       0.00355472
H       10.10354681       6.80193186      12.75756911        9      -0.00143513       0.01007167      -0.00934969
H        5.94856140       5.72594956      12.70495441       10      -0.01032782       0.00354834      -0.00189739
H        5.84465657       5.95983721      15.19469852       11      -0.01439601       0.00564287       0.00536990
H        3.55709653       2.98134097       6.99995742       12      -0.03424715      -0.03081922       0.04704682
H        6.75094139       8.62764044       6.95201232       13      -0.01979867       0.04345612       0.00118540
H        9.57594344      10.08380560       9.48427120       14      -0.04477182      -0.01418688       0.00528879