92
Lattice="7.79674895 0.0 0.0 1.4190564364723863e-05 7.6841456099868966 0.0 1.557793878378382e-05 -2.5709180027523346 17.988015069818605" Properties=species:S:1:pos:R:3:spacegroup_kinds:I:1:forces:R:3 spacegroup="P 1" unit_cell=conventional occupancy="_JSON {\"0\": {\"Cd\": 1}, \"1\": {\"Cd\": 1}, \"2\": {\"Cd\": 1}, \"3\": {\"Cd\": 1}, \"4\": {\"H\": 1}, \"5\": {\"H\": 1}, \"6\": {\"H\": 1}, \"7\": {\"H\": 1}, \"8\": {\"H\": 1}, \"9\": {\"H\": 1}, \"10\": {\"H\": 1}, \"11\": {\"H\": 1}, \"12\": {\"H\": 1}, \"13\": {\"H\": 1}, \"14\": {\"H\": 1}, \"15\": {\"H\": 1}, \"16\": {\"H\": 1}, \"17\": {\"H\": 1}, \"18\": {\"H\": 1}, \"19\": {\"H\": 1}, \"20\": {\"H\": 1}, \"21\": {\"H\": 1}, \"22\": {\"H\": 1}, \"23\": {\"H\": 1}, \"24\": {\"H\": 1}, \"25\": {\"H\": 1}, \"26\": {\"H\": 1}, \"27\": {\"H\": 1}, \"28\": {\"C\": 1}, \"29\": {\"C\": 1}, \"30\": {\"C\": 1}, \"31\": {\"C\": 1}, \"32\": {\"C\": 1}, \"33\": {\"C\": 1}, \"34\": {\"C\": 1}, \"35\": {\"C\": 1}, \"36\": {\"C\": 1}, \"37\": {\"C\": 1}, \"38\": {\"C\": 1}, \"39\": {\"C\": 1}, \"40\": {\"C\": 1}, \"41\": {\"C\": 1}, \"42\": {\"C\": 1}, \"43\": {\"C\": 1}, \"44\": {\"C\": 1}, \"45\": {\"C\": 1}, \"46\": {\"C\": 1}, \"47\": {\"C\": 1}, \"48\": {\"C\": 1}, \"49\": {\"C\": 1}, \"50\": {\"C\": 1}, \"51\": {\"C\": 1}, \"52\": {\"N\": 1}, \"53\": {\"N\": 1}, \"54\": {\"N\": 1}, \"55\": {\"N\": 1}, \"56\": {\"N\": 1}, \"57\": {\"N\": 1}, \"58\": {\"N\": 1}, \"59\": {\"N\": 1}, \"60\": {\"N\": 1}, \"61\": {\"N\": 1}, \"62\": {\"N\": 1}, \"63\": {\"N\": 1}, \"64\": {\"N\": 1}, \"65\": {\"N\": 1}, \"66\": {\"N\": 1}, \"67\": {\"N\": 1}, \"68\": {\"N\": 1}, \"69\": {\"N\": 1}, \"70\": {\"N\": 1}, \"71\": {\"N\": 1}, \"72\": {\"N\": 1}, \"73\": {\"N\": 1}, \"74\": {\"N\": 1}, \"75\": {\"N\": 1}, \"76\": {\"N\": 1}, \"77\": {\"N\": 1}, \"78\": {\"N\": 1}, \"79\": {\"N\": 1}, \"80\": {\"N\": 1}, \"81\": {\"N\": 1}, \"82\": {\"N\": 1}, \"83\": {\"N\": 1}, \"84\": {\"O\": 1}, \"85\": {\"O\": 1}, \"86\": {\"O\": 1}, \"87\": {\"O\": 1}, \"88\": {\"O\": 1}, \"89\": {\"O\": 1}, \"90\": {\"O\": 1}, \"91\": {\"O\": 1}}" energy=-617.1324462890625 free_energy=-617.1324462890625 stress="-0.005106436554342508 4.9848367780214176e-05 4.1781757317949086e-05 4.9848367780214176e-05 -0.005959576461464167 -0.002436718437820673 4.1781757317949086e-05 -0.002436718437820673 -0.004319865256547928" pbc="T T T"
Cd       6.41989503       5.58644160      13.64062830        0       0.22855297       0.31693885       0.03414162
Cd       2.52104207      -1.75930662      13.33649654        1       0.24326894      -0.31265113      -0.02641429
Cd       1.37710861      -0.47230027       4.34320223        2      -0.24296688      -0.32402778      -0.03272155
Cd       5.27548546       6.87235371       4.64632917        3      -0.24708611       0.31772104       0.03433223
H        1.59462717       1.83112280       9.40543211        4       0.06396191       0.00582821      -0.02809656
H        5.49232512       1.99819289      17.57434385        5       0.05795631      -0.01106311       0.01936223
H        6.20111008       3.28322516       8.57978634        6      -0.08120310      -0.01961997       0.04038773
H        2.30328251       3.11714497       0.41085238        7      -0.06433901       0.01038930      -0.02590558
H        1.68239541       2.55341394      11.83231185        8       0.07540706      -0.02959502       0.00380739
H        5.58135844       1.27529805      15.14822714        9       0.08175147       0.02133497      -0.00586422
H        6.11306408       2.56023712       6.15375510       10      -0.06288331       0.03320820       0.00599931
H        2.21499523       3.83948627       2.83622111       11      -0.05593856      -0.03833460       0.00227189
H        7.67571940       1.75617542      13.40010135       12       0.13223267       0.02886229      -0.03910646
H        3.77651270       2.07033639      13.57927129       13       0.13775162      -0.03159927       0.02014470
H        0.12026041       3.35537671       4.58536740       14      -0.13598774      -0.04256473      -0.02592142
H        4.01890614       3.04418309       4.40673636       15      -0.14793181      -0.00332564      -0.10140635
H        5.79854638      -0.38762500      10.38754666       16       0.00329134      -0.03264336       0.02351091
H        1.90017763       4.21666508      16.59136083       17       0.06267907      -0.00798647      -0.03251281
H        1.99730071       5.50189405       7.59883173       18      -0.08003598      -0.02636491      -0.04548998
H        5.89405877       0.89636996       1.39368377       19      -0.07210232       0.02520880       0.04535756
H        0.41852916       3.62201025      14.62341407       20       0.23636070      -0.00519921      -0.09529878
H        4.31638595       0.20648953      12.35675741       21       0.29863459       0.00542995       0.09199207
H        7.37814180       1.48863518       3.36096416       22      -0.29182902       0.01526285       0.09300168
H        3.47984143       4.90748805       5.62944615       23      -0.29632720      -0.00505231      -0.10129532
H        6.97391809       3.51995245      15.62925984       24      -0.03377951       0.06962191      -0.11999051
H        3.07502854       0.30766045      11.35231181       25      -0.04304322      -0.05915819       0.05038623
H        0.82328170       1.59521819       2.35736346       26       0.03631263      -0.06651974       0.08649630
H        4.71821633       4.80326762       6.63423313       27       0.05196485       0.06450041      -0.06732700
C        7.44846550       0.28651707       8.31170305       28       0.03531408       0.01043478       0.03263512
C        3.55128597       6.11104533       0.68072050       29      -0.06609854       0.02791687      -0.18228829
C        0.34659268       4.82530708       9.67441902       30      -0.01251210       0.02552373      -0.06928402
C        4.24425244      -0.99760562      17.30688191       31       0.06414923      -0.07590149      -0.09997913
C        7.57392467       0.69587443       9.70324043       32      -0.02449901      -0.03597422       0.05538400
C        3.67444165       3.13194436      17.27574600       33       0.09284016      -0.00433600       0.03025556
C        0.22147036       4.41889160       8.28187145       34      -0.09228228      -0.03924739       0.04156366
C        4.11969779       1.98027354       0.70914051       35      -0.06503309       0.02582457       0.04767062
C        0.84160327       1.51000575      10.12486230       36       0.03962393       0.03947897      -0.01282171
C        4.73907581       2.31753537      16.85398458       37       0.04102414      -0.02560605       0.05478308
C        6.95364862       3.60327439       7.86057781       38       0.00498124      -0.00907236      -0.00750051
C        3.05566132       2.79563787       1.13074198       39      -0.03385355       0.03443707      -0.04129379
C        0.89000524       1.91019394      11.45933941       40      -0.04301730       0.06244436      -0.08648065
C        4.78820973       1.91758454      15.52050698       41      -0.01894510      -0.07685921       0.05323623
C        6.90670867       3.20307037       6.52643536       42      -0.04394901      -0.10710095       0.06853680
C        3.00855321       3.19603824       2.46422766       43      -0.05713362       0.09055898      -0.08144931
C        7.71819454       1.47762823      12.35015418       44       0.17978662       0.37468347      -0.06803881
C        3.82144010       2.34993178      14.62817427       45       0.10391130      -0.33172089       0.13286477
C        0.07535574       3.63503661       5.63280647       46      -0.11606972      -0.31751531       0.20815177
C        3.97294504       2.76028272       3.35620401       47      -0.14067940       0.46344000       0.03786065
C        6.62142444       0.27998020      10.62854889       48       0.10795652       0.10783437      -0.37908775
C        2.72592580       3.54862306      16.35143500       49      -0.06732221      -0.03002931       0.33163142
C        1.17092777       4.83352463       7.35869457       50       0.06639083      -0.01903550       0.26857221
C        5.06890941       1.56574051       1.63454454       51       0.06351425       0.01069842      -0.36758912
N        0.14273261      -0.05596974       6.28416943       52       0.10357819       0.04632780      -0.05909287
N        4.04089195       6.45368623       2.70671695       53       0.09865107      -0.00583874       0.04713225
N        7.65262717       5.16984149      11.70155341       54      -0.10509577      -0.03400591      -0.00147751
N        3.75266435      -1.34232879      15.27804087       55      -0.04128401       0.03333212      -0.01842196
N        0.67084701       0.35361428       7.42921737       56      -0.04636106      -0.02993960       0.06154055
N        4.56865135       6.04776832       1.56035446       57       0.06208143      -0.03953543      -0.01582695
N        7.12314484       4.76108993      10.55472984       58       0.08997466       0.02823269       0.01287466
N        3.22511437      -0.93331406      16.42341710       59       0.06818102      -0.01572496       0.08974405
N        6.30830494      -0.15386482       7.73116381       60      -0.10163833       0.02902981      -0.00387408
N        2.40936400       6.55305142       1.25789898       61      -0.04612911      -0.03920735       0.07332510
N        1.48780239       5.26649047      10.25332686       62       0.06000708      -0.02865915       0.05228394
N        5.38770894      -1.43917311      16.72581909       63      -0.05551398       0.06267905      -0.05649383
N        6.64782612      -0.35784999       6.46417041       64       0.01936790       0.00934847      -0.06238629
N        2.75096111       6.75693456       2.52531800       65      -0.06953579      -0.00014243       0.09195875
N        1.14755791       5.47267283      11.52089623       66      -0.03833458      -0.04242613       0.02833455
N        5.04562314      -1.64386821      15.45747775       67      -0.02230197       0.03096705       0.01073523
N        6.72097270       0.65419958      11.93089991       68      -0.80216205      -0.50029111       0.67158681
N        2.82277183       3.17365590      15.04943714       69      -0.71674377       0.46060133      -0.72336268
N        1.07168686       4.45904841       6.05545013       70       0.81148249       0.51408684      -0.71507543
N        4.97169522       1.94183463       2.93637264       71       0.81638265      -0.58370101       0.67135149
N        4.46731609       4.85597027      12.57367098       72      -0.22183372      -0.40619239      -0.57157522
N        0.56861513      -1.03002215      14.40772077       73      -0.20028964       0.31568673       0.48660028
N        3.32855886       0.25726679       5.41361073       74       0.21922325       0.22710335       0.41403216
N        7.22322851       6.14279112       3.57948432       75       0.25429374      -0.43981075      -0.59910053
N        4.39632283       3.91824794      11.81327107       76      -0.12060056       0.03343515       0.03738682
N        0.49880209      -0.09233967      15.16463523       77      -0.16286640       0.26579133       0.21552508
N        3.40130708       1.19353370       6.17024358       78       0.11187423       0.18598497       0.16406770
N        7.29772169       5.20424809       2.81997100       79       0.11034715      -0.06233599      -0.04569003
N        4.31524657       3.00679654      11.09470856       80      -0.01996783      -0.00111622       0.03497509
N        0.41569987       0.82119563      15.88528481       81       0.00615202      -0.20289475      -0.20414534
N        3.48000988       2.10464149       6.89118081       82       0.02848091      -0.03767196      -0.07894381
N        7.37904830       4.29157705       2.10019928       83       0.01424582       0.13288058       0.14530769
O        5.84834171       0.19259863      12.82076857       84       0.18105674      -0.15258045      -0.16624996
O        1.95233736       3.63669940      14.15935192       85       0.14813012       0.15729748       0.16816631
O        1.94397758       4.92318187       5.16579789       86      -0.17924190       0.14833394       0.18184552
O        5.84332808       1.47640538       3.82534863       87      -0.16448027      -0.14283395      -0.16364729
O        7.20126145       3.63476111      14.68844861       88      -0.00389230       0.10466020       0.07249147
O        3.30421489       0.19354154      12.29124406       89      -0.06938154      -0.11703338      -0.00437699
O        0.59365204       1.47865921       3.29668381       90       0.06192908      -0.11431295      -0.03997467
O        4.49192514       4.91966598       5.69450622       91       0.04944593       0.11099793       0.02727717
92
Lattice="7.79674895 0.0 0.0 1.4190564364723863e-05 7.6841456099868966 0.0 1.557793878378382e-05 -2.5709180027523346 17.988015069818605" Properties=species:S:1:pos:R:3:spacegroup_kinds:I:1:forces:R:3 spacegroup="P 1" unit_cell=conventional occupancy="_JSON {\"0\": {\"Cd\": 1}, \"1\": {\"Cd\": 1}, \"2\": {\"Cd\": 1}, \"3\": {\"Cd\": 1}, \"4\": {\"H\": 1}, \"5\": {\"H\": 1}, \"6\": {\"H\": 1}, \"7\": {\"H\": 1}, \"8\": {\"H\": 1}, \"9\": {\"H\": 1}, \"10\": {\"H\": 1}, \"11\": {\"H\": 1}, \"12\": {\"H\": 1}, \"13\": {\"H\": 1}, \"14\": {\"H\": 1}, \"15\": {\"H\": 1}, \"16\": {\"H\": 1}, \"17\": {\"H\": 1}, \"18\": {\"H\": 1}, \"19\": {\"H\": 1}, \"20\": {\"H\": 1}, \"21\": {\"H\": 1}, \"22\": {\"H\": 1}, \"23\": {\"H\": 1}, \"24\": {\"H\": 1}, \"25\": {\"H\": 1}, \"26\": {\"H\": 1}, \"27\": {\"H\": 1}, \"28\": {\"C\": 1}, \"29\": {\"C\": 1}, \"30\": {\"C\": 1}, \"31\": {\"C\": 1}, \"32\": {\"C\": 1}, \"33\": {\"C\": 1}, \"34\": {\"C\": 1}, \"35\": {\"C\": 1}, \"36\": {\"C\": 1}, \"37\": {\"C\": 1}, \"38\": {\"C\": 1}, \"39\": {\"C\": 1}, \"40\": {\"C\": 1}, \"41\": {\"C\": 1}, \"42\": {\"C\": 1}, \"43\": {\"C\": 1}, \"44\": {\"C\": 1}, \"45\": {\"C\": 1}, \"46\": {\"C\": 1}, \"47\": {\"C\": 1}, \"48\": {\"C\": 1}, \"49\": {\"C\": 1}, \"50\": {\"C\": 1}, \"51\": {\"C\": 1}, \"52\": {\"N\": 1}, \"53\": {\"N\": 1}, \"54\": {\"N\": 1}, \"55\": {\"N\": 1}, \"56\": {\"N\": 1}, \"57\": {\"N\": 1}, \"58\": {\"N\": 1}, \"59\": {\"N\": 1}, \"60\": {\"N\": 1}, \"61\": {\"N\": 1}, \"62\": {\"N\": 1}, \"63\": {\"N\": 1}, \"64\": {\"N\": 1}, \"65\": {\"N\": 1}, \"66\": {\"N\": 1}, \"67\": {\"N\": 1}, \"68\": {\"N\": 1}, \"69\": {\"N\": 1}, \"70\": {\"N\": 1}, \"71\": {\"N\": 1}, \"72\": {\"N\": 1}, \"73\": {\"N\": 1}, \"74\": {\"N\": 1}, \"75\": {\"N\": 1}, \"76\": {\"N\": 1}, \"77\": {\"N\": 1}, \"78\": {\"N\": 1}, \"79\": {\"N\": 1}, \"80\": {\"N\": 1}, \"81\": {\"N\": 1}, \"82\": {\"N\": 1}, \"83\": {\"N\": 1}, \"84\": {\"O\": 1}, \"85\": {\"O\": 1}, \"86\": {\"O\": 1}, \"87\": {\"O\": 1}, \"88\": {\"O\": 1}, \"89\": {\"O\": 1}, \"90\": {\"O\": 1}, \"91\": {\"O\": 1}}" energy=-617.183837890625 free_energy=-617.183837890625 stress="-0.004410378634929657 8.942733984440565e-05 1.801942016754765e-05 8.942733984440565e-05 -0.006979880388826132 -0.0029161402489989996 1.801942016754765e-05 -0.0029161402489989996 -0.004978679586201906" pbc="T T T"
Cd       6.42270844       5.58921819      13.64038458        0       0.20160365       0.29993433       0.02742573
Cd       2.52192888      -1.76209057      13.33521188        1       0.22079717      -0.28871784      -0.03151204
Cd       1.37417174      -0.47516120       4.34150850        2      -0.21718949      -0.30285853      -0.03123092
Cd       5.27305368       6.87508067       4.64644219        3      -0.22723952       0.29742587       0.02426809
H        1.59490612       1.83221360       9.40291300        4       0.05589736      -0.00077175      -0.02123294
H        5.49309862       1.99832650      17.57369201        5       0.05392864      -0.00540686       0.02173983
H        6.19830572       3.28323357       8.58032591        6      -0.03756730       0.00297581       0.00671369
H        2.30080344       3.11878187       0.40857399        7      -0.06675136       0.00765885      -0.03159421
H        1.68344421       2.55309686      11.83200707        8       0.02780329      -0.05676524      -0.02060797
H        5.58199285       1.27557552      15.14681776        9       0.06802949       0.02733907       0.00880105
H        6.11021534       2.56126355       6.15173285       10      -0.05679797       0.03059050       0.01660192
H        2.21292071       3.83941864       2.83565994       11      -0.07343121      -0.01949306      -0.00368757
H        7.67785825       1.75819343      13.39878726       12       0.12612452       0.02272652      -0.06704164
H        3.77759762       2.07086097      13.57817927       13       0.14159293      -0.03732011       0.05395664
H        0.11743667       3.35351788       4.58373378       14      -0.13362247      -0.03367538       0.01228705
H        4.01751503       3.04398120       4.40463671       15      -0.15843390       0.01667234      -0.07815072
H        5.79776388      -0.38847717      10.38625395       16       0.02077554      -0.01663569       0.01167276
H        1.89986000       4.21681637      16.59011361       17       0.05680035      -0.00031057      -0.00113232
H        1.99509229       5.50190821       7.59628219       18      -0.02161036       0.03135796       0.00838011
H        5.89256185       0.89734675       1.39368874       19      -0.03319675      -0.01446590       0.00812240
H        0.42034783       3.62182809      14.62149031       20       0.12368483       0.00109102      -0.08180474
H        4.31925852       0.20571341      12.35742112       21       0.13442561       0.00188957       0.07411047
H        7.37525100       1.48584615       3.36294410       22      -0.16151233       0.01917854       0.06047735
H        3.47691594       4.90829378       5.62661539       23      -0.19388957      -0.00463046      -0.07894602
H        6.97204046       3.52253787      15.62634581       24      -0.03642970       0.06280324      -0.07674350
H        3.07509311       0.30526730      11.35175412       25      -0.06057501      -0.04906064      -0.04001634
H        0.82466055       1.59293340       2.35746442       26       0.02997234      -0.06028373       0.03785101
H        4.71911047       4.80584702       6.63228576       27       0.04371271       0.06049163      -0.04519380
C        7.44696188       0.28744597       8.31106588       28      -0.02904939      -0.02134134       0.03991842
C        3.54944161       6.11247052       0.67773518       29      -0.02655029       0.01884613      -0.07101843
C        0.34515440       4.82610317       9.67172084       30       0.07592094       0.03738063      -0.01567996
C        4.24501993      -0.99888699      17.30433777       31      -0.03349625      -0.01265383      -0.00774056
C        7.57304409       0.69646204       9.70309463       32       0.01117349      -0.00552680      -0.01569134
C        3.67467947       3.13206851      17.27474383       33       0.10035609      -0.02317620       0.05472052
C        0.21986265       4.41774466       8.28010962       34      -0.07487370       0.00585965       0.10599755
C        4.11751215       1.98058372       0.70735817       35      -0.04453649       0.02372075       0.03691608
C        0.84151009       1.51172455      10.12263980       36       0.01969712       0.02067776      -0.01700713
C        4.73904577       2.31750416      16.85400654       37       0.06322253      -0.04354170       0.03607831
C        6.95277326       3.60377100       7.86069686       38      -0.08820115      -0.09296551      -0.05151093
C        3.05309137       2.79711283       1.12824348       39       0.00022097       0.00856230      -0.05799038
C        0.88840220       1.91158493      11.45668774       40       0.01009905       0.09621815      -0.06380452
C        4.78763363       1.91659301      15.52033517       41       0.02108964      -0.09155951       0.09930898
C        6.90545853       3.20182355       6.52537955       42      -0.05507329      -0.08078668       0.13982958
C        3.00646145       3.19826509       2.46149677       43      -0.02015164       0.05883396      -0.06369679
C        7.71690659       1.47982155      12.34778742       44       0.09104226       0.29134041      -0.00433640
C        3.82178038       2.34715169      14.62897971       45      -0.05502956      -0.20020926       0.05656382
C        0.07302228       3.63296044       5.63242157       46       0.06308354      -0.19163969       0.16633676
C        3.97009911       2.76311430       3.35413666       47       0.04251018       0.30501860      -0.01318808
C        6.62015288       0.28137716      10.62558447       48       0.05042654       0.07078889      -0.19563141
C        2.72523319       3.54750030      16.35406830       49      -0.12866071      -0.01281436       0.07837629
C        1.16994201       4.83464918       7.36080650       50       0.06181814      -0.09219153      -0.00303002
C        5.06805160       1.56569492       1.63185610       51       0.02643473       0.05812056      -0.26382482
N        0.14292251      -0.05518704       6.28359314       52       0.04829745       0.02638783      -0.04773828
N        4.04035384       6.45333753       2.70520967       53       0.11179604      -0.00656584       0.02384141
N        7.65119938       5.16917216      11.69989524       54      -0.05377838      -0.01226752      -0.00184395
N        3.75068395      -1.34091654      15.27569612       55       0.01748878       0.01368599       0.01773147
N        0.66863617       0.35301621       7.42957599       56       0.01049285      -0.00370269       0.05369048
N        4.56726838       6.04811100       1.55790378       57       0.06334457      -0.03238570      -0.01672927
N        7.12439589       4.76231190      10.55229628       58      -0.02138473       0.00455157       0.02323596
N        3.22487541      -0.93389434      16.42253352       59       0.04379876      -0.01695218       0.04869442
N        6.30571313      -0.15410765       7.72948179       60      -0.03794281       0.05783794       0.01128198
N        2.40820604       6.55302632       1.25774386       61      -0.05715188      -0.03082765       0.02560823
N        1.48791899       5.26579852      10.25238420       62       0.02963638      -0.02688800       0.04154994
N        5.38626702      -1.43793979      16.72320743       63       0.03091101       0.02921870      -0.06212896
N        6.64692835      -0.35733438       6.46311000       64       0.02852923       0.00713488      -0.07933241
N        2.75080266       6.75705552       2.52415683       65      -0.08025244      -0.00370066       0.11665725
N        1.14732139       5.47211848      11.51993495       66      -0.04728425      -0.05726980       0.00940530
N        5.04555209      -1.64287069      15.45533878       67      -0.07666266       0.04142629      -0.03543552
N        6.71797494       0.65125769      11.93324427       68      -0.65039903      -0.37844422       0.44809085
N        2.81980619       3.17651375      15.04646981       69      -0.47576040       0.29285637      -0.49599576
N        1.07449534       4.46180316       6.05245576       70       0.54434562       0.34849501      -0.51779753
N        4.97414375       1.93966020       2.93633820       71       0.55141437      -0.40914702       0.56196767
N        4.46437025       4.85345103      12.57077001       72      -0.19201677      -0.27046460      -0.45418289
N        0.56702116      -1.02705791      14.41062107       73      -0.17762059       0.10745387       0.29952249
N        3.32883291       0.26025310       5.41632835       74       0.19796960       0.02100679       0.23593226
N        7.22550113       6.13985125       3.57653535       75       0.22296382      -0.30113190      -0.47853562
N        4.39345972       3.91767153      11.81193135       76      -0.11877128      -0.13722980      -0.10687361
N        0.49619691      -0.09013270      15.16343562       77      -0.12445933       0.19508633       0.19323328
N        3.40249813       1.19508865       6.16967612       78       0.08253212       0.18560734       0.18177150
N        7.29976437       5.20281850       2.81809552       79       0.08316719       0.05253850       0.03607655
N        4.31379342       3.00585855      11.09219896       80      -0.02145583       0.03545652       0.06451736
N        0.41558734       0.82058127      15.88297204       81      -0.02971984       0.07450883       0.00189182
N        3.47900225       2.10464332       6.88943414       82       0.05602865       0.16511895       0.07603410
N        7.37961134       4.29275270       2.09964304       83       0.04115782      -0.12024735      -0.05271857
O        5.84622913       0.19030468      12.81794846       84       0.13805026      -0.17133875      -0.10050768
O        1.95508908       3.63715727      14.15942942       85       0.04017961       0.20518939       0.09178281
O        1.94219191       4.92359756       5.16578846       86      -0.09889758       0.18409672       0.11864752
O        5.84151035       1.47413629       3.82302074       87      -0.10090035      -0.15928033      -0.11191705
O        7.20011726       3.63679068      14.68652740       88       0.12114400       0.10332191       0.01750092
O        3.30197857       0.19189198      12.28940046       89       0.11767924      -0.12463120       0.10537117
O        0.59449805       1.47640283       3.29562971       90      -0.07685491      -0.11944342       0.03900275
O        4.49170310       4.92166856       5.69320058       91      -0.04798737       0.11223754      -0.01471001
92
Lattice="7.79674895 0.0 0.0 1.4190564364723863e-05 7.6841456099868966 0.0 1.557793878378382e-05 -2.5709180027523346 17.988015069818605" Properties=species:S:1:pos:R:3:spacegroup_kinds:I:1:forces:R:3 spacegroup="P 1" unit_cell=conventional occupancy="_JSON {\"0\": {\"Cd\": 1}, \"1\": {\"Cd\": 1}, \"2\": {\"Cd\": 1}, \"3\": {\"Cd\": 1}, \"4\": {\"H\": 1}, \"5\": {\"H\": 1}, \"6\": {\"H\": 1}, \"7\": {\"H\": 1}, \"8\": {\"H\": 1}, \"9\": {\"H\": 1}, \"10\": {\"H\": 1}, \"11\": {\"H\": 1}, \"12\": {\"H\": 1}, \"13\": {\"H\": 1}, \"14\": {\"H\": 1}, \"15\": {\"H\": 1}, \"16\": {\"H\": 1}, \"17\": {\"H\": 1}, \"18\": {\"H\": 1}, \"19\": {\"H\": 1}, \"20\": {\"H\": 1}, \"21\": {\"H\": 1}, \"22\": {\"H\": 1}, \"23\": {\"H\": 1}, \"24\": {\"H\": 1}, \"25\": {\"H\": 1}, \"26\": {\"H\": 1}, \"27\": {\"H\": 1}, \"28\": {\"C\": 1}, \"29\": {\"C\": 1}, \"30\": {\"C\": 1}, \"31\": {\"C\": 1}, \"32\": {\"C\": 1}, \"33\": {\"C\": 1}, \"34\": {\"C\": 1}, \"35\": {\"C\": 1}, \"36\": {\"C\": 1}, \"37\": {\"C\": 1}, \"38\": {\"C\": 1}, \"39\": {\"C\": 1}, \"40\": {\"C\": 1}, \"41\": {\"C\": 1}, \"42\": {\"C\": 1}, \"43\": {\"C\": 1}, \"44\": {\"C\": 1}, \"45\": {\"C\": 1}, \"46\": {\"C\": 1}, \"47\": {\"C\": 1}, \"48\": {\"C\": 1}, \"49\": {\"C\": 1}, \"50\": {\"C\": 1}, \"51\": {\"C\": 1}, \"52\": {\"N\": 1}, \"53\": {\"N\": 1}, \"54\": {\"N\": 1}, \"55\": {\"N\": 1}, \"56\": {\"N\": 1}, \"57\": {\"N\": 1}, \"58\": {\"N\": 1}, \"59\": {\"N\": 1}, \"60\": {\"N\": 1}, \"61\": {\"N\": 1}, \"62\": {\"N\": 1}, \"63\": {\"N\": 1}, \"64\": {\"N\": 1}, \"65\": {\"N\": 1}, \"66\": {\"N\": 1}, \"67\": {\"N\": 1}, \"68\": {\"N\": 1}, \"69\": {\"N\": 1}, \"70\": {\"N\": 1}, \"71\": {\"N\": 1}, \"72\": {\"N\": 1}, \"73\": {\"N\": 1}, \"74\": {\"N\": 1}, \"75\": {\"N\": 1}, \"76\": {\"N\": 1}, \"77\": {\"N\": 1}, \"78\": {\"N\": 1}, \"79\": {\"N\": 1}, \"80\": {\"N\": 1}, \"81\": {\"N\": 1}, \"82\": {\"N\": 1}, \"83\": {\"N\": 1}, \"84\": {\"O\": 1}, \"85\": {\"O\": 1}, \"86\": {\"O\": 1}, \"87\": {\"O\": 1}, \"88\": {\"O\": 1}, \"89\": {\"O\": 1}, \"90\": {\"O\": 1}, \"91\": {\"O\": 1}}" energy=-617.221435546875 free_energy=-617.221435546875 stress="-0.004008747637271881 0.00011850812006741762 3.5125376598443836e-05 0.00011850812006741762 -0.007119498215615749 -0.0029317457228899 3.5125376598443836e-05 -0.0029317457228899 -0.004938912577927113" pbc="T T T"
Cd       6.42508490       5.59217194      13.64019495        0       0.17752755       0.28301537       0.02633709
Cd       2.52423437      -1.76506383      13.33236006        1       0.19719622      -0.26768851      -0.01935302
Cd       1.37121196      -0.47762164       4.33916223        2      -0.20295887      -0.28775695      -0.02646837
Cd       5.27025498       6.87757151       4.64509517        3      -0.20897244       0.27941042       0.03249131
H        1.59569322       1.83311563       9.40081187        4       0.03072794      -0.01631335      -0.00759508
H        5.49486158       1.99921571      17.57314674        5       0.03598015       0.00592143       0.01740643
H        6.19687460       3.28409016       8.57871455        6      -0.06397839      -0.00834151       0.02283258
H        2.29841345       3.11894706       0.40630165        7      -0.03989220      -0.00596928      -0.01667194
H        1.68402203       2.55170784      11.83095093        8       0.01828983      -0.05657164      -0.03187561
H        5.58280769       1.27667827      15.14511529        9       0.07677508       0.01648513       0.01250242
H        6.10850545       2.56288390       6.15032978       10      -0.06912003       0.01238130       0.01179723
H        2.21088379       3.83901611       2.83465978       11      -0.08474123      -0.00601195      -0.00900083
H        7.67976492       1.75852349      13.39666605       12       0.11146331       0.02519557      -0.06163286
H        3.77741531       2.06988281      13.57863701       13       0.13367796      -0.04960725       0.01234610
H        0.11463629       3.35285169       4.58273569       14      -0.12363695      -0.02109542       0.06178637
H        4.01460985       3.04496496       4.40203801       15      -0.16050573       0.03162365      -0.03931901