91
Lattice="9.57583271 0.0 0.0 4.5052730553378355 8.970666081796866 0.0 5.3830387372053945 3.2550658353875996 12.570302356083182" Properties=species:S:1:pos:R:3:spacegroup_kinds:I:1:forces:R:3 spacegroup="P 1" unit_cell=conventional occupancy="_JSON {\"0\": {\"Cd\": 1}, \"1\": {\"Cd\": 1}, \"2\": {\"Cd\": 1}, \"3\": {\"H\": 1}, \"4\": {\"H\": 1}, \"5\": {\"H\": 1}, \"6\": {\"H\": 1}, \"7\": {\"H\": 1}, \"8\": {\"H\": 1}, \"9\": {\"H\": 1}, \"10\": {\"H\": 1}, \"11\": {\"H\": 1}, \"12\": {\"H\": 1}, \"13\": {\"H\": 1}, \"14\": {\"H\": 1}, \"15\": {\"H\": 1}, \"16\": {\"H\": 1}, \"17\": {\"H\": 1}, \"18\": {\"H\": 1}, \"19\": {\"H\": 1}, \"20\": {\"H\": 1}, \"21\": {\"H\": 1}, \"22\": {\"H\": 1}, \"23\": {\"H\": 1}, \"24\": {\"H\": 1}, \"25\": {\"H\": 1}, \"26\": {\"H\": 1}, \"27\": {\"H\": 1}, \"28\": {\"H\": 1}, \"29\": {\"H\": 1}, \"30\": {\"H\": 1}, \"31\": {\"C\": 1}, \"32\": {\"C\": 1}, \"33\": {\"C\": 1}, \"34\": {\"C\": 1}, \"35\": {\"C\": 1}, \"36\": {\"C\": 1}, \"37\": {\"C\": 1}, \"38\": {\"C\": 1}, \"39\": {\"C\": 1}, \"40\": {\"C\": 1}, \"41\": {\"C\": 1}, \"42\": {\"C\": 1}, \"43\": {\"C\": 1}, \"44\": {\"C\": 1}, \"45\": {\"C\": 1}, \"46\": {\"C\": 1}, \"47\": {\"C\": 1}, \"48\": {\"C\": 1}, \"49\": {\"C\": 1}, \"50\": {\"C\": 1}, \"51\": {\"C\": 1}, \"52\": {\"C\": 1}, \"53\": {\"C\": 1}, \"54\": {\"C\": 1}, \"55\": {\"C\": 1}, \"56\": {\"C\": 1}, \"57\": {\"C\": 1}, \"58\": {\"C\": 1}, \"59\": {\"C\": 1}, \"60\": {\"C\": 1}, \"61\": {\"C\": 1}, \"62\": {\"C\": 1}, \"63\": {\"C\": 1}, \"64\": {\"C\": 1}, \"65\": {\"C\": 1}, \"66\": {\"C\": 1}, \"67\": {\"C\": 1}, \"68\": {\"C\": 1}, \"69\": {\"C\": 1}, \"70\": {\"C\": 1}, \"71\": {\"C\": 1}, \"72\": {\"C\": 1}, \"73\": {\"C\": 1}, \"74\": {\"C\": 1}, \"75\": {\"N\": 1}, \"76\": {\"N\": 1}, \"77\": {\"O\": 1}, \"78\": {\"O\": 1}, \"79\": {\"O\": 1}, \"80\": {\"O\": 1}, \"81\": {\"O\": 1}, \"82\": {\"O\": 1}, \"83\": {\"O\": 1}, \"84\": {\"O\": 1}, \"85\": {\"O\": 1}, \"86\": {\"O\": 1}, \"87\": {\"O\": 1}, \"88\": {\"O\": 1}, \"89\": {\"O\": 1}, \"90\": {\"O\": 1}}" energy=-626.0870361328125 free_energy=-626.0870361328125 stress="-0.0012963777408003807 0.0007294698734767735 -0.000134406698634848 0.0007294698734767735 -0.00177379185333848 -0.00012720856466330588 -0.000134406698634848 -0.00012720856466330588 -0.00036605095374397933" pbc="T T T"
Cd      14.51996942       6.11288045       6.28513931        0      -0.02461824       0.00789487      -0.02113681
Cd      15.11791897       9.12348931       8.17237646        1      -0.15037251       0.06804040      -0.09200561
Cd       4.34593616       3.10372121       4.39753402        2       0.14826292      -0.07843336       0.08822300
H       15.61633809       8.94236053       5.23228592        3       0.03295039      -0.00358619      -0.02534629
H        3.84452555       3.28456566       7.33627677        4      -0.00127280       0.02847169      -0.00009302
H       14.00011892       8.89190683       5.33474922        5      -0.06624219      -0.06325901      -0.00347454
H        5.46243262       3.33531213       7.23462316        6      -0.02178812       0.10897294      -0.04632801
H        8.60679690       4.18535173       7.59105538        7      -0.01074767      -0.01930274      -0.04828087
H       10.85650478       8.04073904       4.97726718        8       0.02466796       0.02491868       0.04608005
H        9.89776244       8.26806378       8.09384504        9       0.03959948      -0.00455406      -0.02442825
H        9.56592998       3.95872657       4.47518902       10      -0.04110725      -0.01479933       0.02363275
H       12.73761128       5.05635608       8.37091334       11       0.03308314      -0.01427101      -0.02454258
H        6.72534513       7.17227600       4.19919730       12      -0.01604645       0.00280795       0.02288754
H       13.39446566      10.14957593      10.10458031       13       0.00637265       0.01396645       0.06588633
H        6.07010727       2.08107783       2.46555162       14      -0.04090479      -0.03942823      -0.13805863
H       11.93793303      11.04434034      11.88915035       15       0.02372310      -0.04114513      -0.01090955
H        7.52562762       1.18354533       0.67981485       16      -0.01514615       0.03775966       0.00976128
H        7.44783709       8.07741675       1.63514420       17      -0.02973098      -0.00071580       0.03867923
H       12.01493089       4.14893016      10.93278537       18       0.01027057       0.01705734      -0.01559921
H        9.78541213       7.51968494       2.13647162       19      -0.00239899      -0.04572912      -0.01461837
H        9.67750780       4.70904110      10.43130513       20       0.00070377       0.04573362       0.02477294
H        8.17337451       8.80018564       9.72566874       21       0.01923200       0.02072533       0.04012810
H       11.28803402       3.42730664       2.84210082       22      -0.00115152      -0.02487591      -0.05005504
H       10.15454079       8.56673713      11.16354541       23      -0.01880755      -0.00298710       0.01103228
H        9.30860997       3.65919082       1.40394753       24       0.03657211      -0.00551230      -0.02457312
H        5.82370173       5.47311786       0.85080945       25      -0.00266723       0.01234559       0.01549144
H       13.63880556       6.75401431      11.71731816       26       0.02321748      -0.01477423      -0.00273838
H        4.50417128       6.34289407       2.77149587       27       0.01888798       0.03545998       0.04877452
H       14.95801985       5.88388513       9.79660162       28      -0.00490268      -0.03534526      -0.02722600
H       11.74746671       7.05406219       2.48371330       29      -0.01925942      -0.01750807      -0.03524031
H        7.71442282       5.17354706      10.08642004       30       0.04312558       0.00562523       0.01029943
C        7.68067103       6.72741962       7.63983783       31      -0.05542767       0.09337363       0.08488658
C       11.78151069       5.49839884       4.92802774       32       0.10435307       0.01985198      -0.04783813
C        9.09310550       6.26991189       7.86930536       33       0.08698741       0.05664066      -0.07634036
C       10.36994122       5.95450552       4.69985469       34      -0.10094982       0.09179705       0.06249068
C        9.39227640       4.90829595       7.79342114       35       0.05900435      -0.02992568       0.06005351
C       10.07097954       7.31881003       4.77391031       36      -0.02286324      -0.06927834      -0.03384498
C       12.54522510       7.75711220       8.36752646       37      -0.00676572      -0.03612612       0.03782114
C        6.91781096       4.46790662       4.19965563       38      -0.01579228       0.25166437       0.00763388
C       11.43017347       6.76084296       8.25491010       39      -0.08916795       0.04300490      -0.00049330
C        8.03391971       5.46521276       4.31526207       40       0.00918400       0.02363190      -0.03166134
C       10.11256065       7.19977497       8.09448417       41      -0.00490564       0.05488914      -0.00964036
C        9.35060502       5.02643061       4.47460524       42       0.01113207      -0.07927166       0.01852813
C       11.71543145       5.39474746       8.21606202       43       0.08963126      -0.06388319       0.00265647
C        7.74798868       6.83311786       4.35264021       44      -0.06854054      -0.00356343       0.02086602
C       10.70640371       4.46432581       7.96616312       45      -0.04736294      -0.00033107      -0.04041182
C        8.75777500       7.76338771       4.60422512       46      -0.01409198      -0.07164481       0.00629555
C       11.01403372       2.99738550       7.88226014       47      -0.15287621      -0.02804616       0.00800282
C        8.44944008       9.22833821       4.68723620       48       0.07584469       0.04656309      -0.02580121
C       15.12981382       9.95748786      11.38192365       49      -0.02310440      -0.02060003       0.00464867
C        4.33283874       2.26914737       1.18631050       50       0.04619988      -0.00031498       0.04753014
C       13.78814026      10.28915455      11.11043625       51      -0.00133330       0.09212907       0.12661168
C        5.67415497       1.93552528       1.45870562       52       0.03357341      -0.04066586      -0.06391667
C       12.97209243      10.78344249      12.11302653       53      -0.00661066       0.00511453       0.01438145
C        6.49155950       1.44350395       0.45591593       54      -0.03061855      -0.01282793      -0.03136535
C        8.09083726       7.69236602       0.84525127       55      -0.02691835      -0.00109050      -0.00193293
C       11.37177595       4.53487119      11.72352435       56       0.02964699      -0.00573400      -0.01500867
C        9.40945567       7.37539618       1.12445260       57       0.05117544      -0.01142072      -0.06536658
C       10.05222502       4.85221266      11.44420965       58       0.02621263      -0.02329946       0.03626823
C       10.27545746       6.88172933       0.12242662       59      -0.05766352      -0.02015280       0.00419146
C        9.18766636       5.34375522      12.44621807       60       0.02106145       0.05921628       0.03480528
C       11.66095546       6.55300630       0.36827598       61      -0.06172106      -0.09301203      -0.04910257
C        7.80258006       5.67402177      12.20280768       62       0.04828189       0.05332369      -0.07292458
C        8.23593988       9.31584695      11.84112021       63      -0.04322872      -0.09765923      -0.19247350
C       11.22852570       2.90891916       0.72899646       64      -0.02338887       0.13270210       0.14792855
C       17.17945674       9.17853179      10.57680538       65       0.09452102       0.03953226       0.05159746
C        2.28396006       3.04894542       1.99156220       66      -0.10154209      -0.04075947       0.02681579
C        9.58905947       8.94240392      12.02052151       67       0.05216723       0.00682027       0.10389287
C        9.87543543       3.28293476       0.54709340       68      -0.09016269       0.01628962      -0.04753539
C        4.78978667       5.78351838       0.70148276       69      -0.06294502       0.06185080       0.06671705
C       14.67328762       6.44360748      11.86719634       70       0.05398093      -0.06807305      -0.07789177
C        4.04422178       6.28354323       1.78628814       71       0.08069852      -0.01693039      -0.03995910
C       15.41846279       5.94331918      10.78241712       72      -0.07370164       0.01511095       0.01531145
C       12.29824041       6.67227168       1.62283787       73       0.04171186       0.02366412       0.01752856
C        7.16448174       5.55516294      10.94647303       74      -0.04550520      -0.01142123       0.04901780
N       15.91228359       9.46153752      10.35223540       75      -0.00361544      -0.02998309       0.10123603
N        3.55057779       2.76532829       2.21723550       76       0.02688399       0.02687403      -0.13007924
O        6.82893614       5.81185472       7.37586709       77       0.00900039      -0.12467805      -0.00565329
O       12.63322941       6.41639539       5.19166049       78      -0.02801657       0.05796814      -0.00092217
O        7.45450219       7.97658356       7.71353095       79       0.09124967      -0.09010851      -0.05847362
O       12.00764333       4.25056269       4.85650782       80      -0.06050272       0.01600456       0.05161449
O       13.75605751       7.27903591       8.19937504       81      -0.04428950      -0.05098966      -0.04162844
O        5.70714632       4.95068695       4.36584247       82       0.06830797      -0.00136784       0.04111604
O       12.31820576       8.96057027       8.57926532       83       0.01332812       0.01980245       0.03421428
O        7.14431031       3.26678076       3.98935065       84      -0.00097039      -0.16362979      -0.05738253
O        9.99752565       2.22466002       7.76871833       85      -0.13303426       0.21108660       0.03436591
O        9.46695765       9.99845081       4.79799662       86       0.14861903      -0.12790394      -0.02552285
O       12.20772349       2.58302608       7.95837835       87       0.09050256       0.00056124       0.05780448
O        7.25461311       9.64312465       4.61083762       88      -0.01009703      -0.00699610      -0.05187569
O       14.81320849       8.51931828       5.72395444       89      -0.01908857      -0.05857823       0.15940414
O        4.64833291       3.70950082       6.84309282       90       0.07003778      -0.02275262      -0.08218372
91
Lattice="9.57583271 0.0 0.0 4.5052730553378355 8.970666081796866 0.0 5.3830387372053945 3.2550658353875996 12.570302356083182" Properties=species:S:1:pos:R:3:spacegroup_kinds:I:1:forces:R:3 spacegroup="P 1" unit_cell=conventional occupancy="_JSON {\"0\": {\"Cd\": 1}, \"1\": {\"Cd\": 1}, \"2\": {\"Cd\": 1}, \"3\": {\"H\": 1}, \"4\": {\"H\": 1}, \"5\": {\"H\": 1}, \"6\": {\"H\": 1}, \"7\": {\"H\": 1}, \"8\": {\"H\": 1}, \"9\": {\"H\": 1}, \"10\": {\"H\": 1}, \"11\": {\"H\": 1}, \"12\": {\"H\": 1}, \"13\": {\"H\": 1}, \"14\": {\"H\": 1}, \"15\": {\"H\": 1}, \"16\": {\"H\": 1}, \"17\": {\"H\": 1}, \"18\": {\"H\": 1}, \"19\": {\"H\": 1}, \"20\": {\"H\": 1}, \"21\": {\"H\": 1}, \"22\": {\"H\": 1}, \"23\": {\"H\": 1}, \"24\": {\"H\": 1}, \"25\": {\"H\": 1}, \"26\": {\"H\": 1}, \"27\": {\"H\": 1}, \"28\": {\"H\": 1}, \"29\": {\"H\": 1}, \"30\": {\"H\": 1}, \"31\": {\"C\": 1}, \"32\": {\"C\": 1}, \"33\": {\"C\": 1}, \"34\": {\"C\": 1}, \"35\": {\"C\": 1}, \"36\": {\"C\": 1}, \"37\": {\"C\": 1}, \"38\": {\"C\": 1}, \"39\": {\"C\": 1}, \"40\": {\"C\": 1}, \"41\": {\"C\": 1}, \"42\": {\"C\": 1}, \"43\": {\"C\": 1}, \"44\": {\"C\": 1}, \"45\": {\"C\": 1}, \"46\": {\"C\": 1}, \"47\": {\"C\": 1}, \"48\": {\"C\": 1}, \"49\": {\"C\": 1}, \"50\": {\"C\": 1}, \"51\": {\"C\": 1}, \"52\": {\"C\": 1}, \"53\": {\"C\": 1}, \"54\": {\"C\": 1}, \"55\": {\"C\": 1}, \"56\": {\"C\": 1}, \"57\": {\"C\": 1}, \"58\": {\"C\": 1}, \"59\": {\"C\": 1}, \"60\": {\"C\": 1}, \"61\": {\"C\": 1}, \"62\": {\"C\": 1}, \"63\": {\"C\": 1}, \"64\": {\"C\": 1}, \"65\": {\"C\": 1}, \"66\": {\"C\": 1}, \"67\": {\"C\": 1}, \"68\": {\"C\": 1}, \"69\": {\"C\": 1}, \"70\": {\"C\": 1}, \"71\": {\"C\": 1}, \"72\": {\"C\": 1}, \"73\": {\"C\": 1}, \"74\": {\"C\": 1}, \"75\": {\"N\": 1}, \"76\": {\"N\": 1}, \"77\": {\"O\": 1}, \"78\": {\"O\": 1}, \"79\": {\"O\": 1}, \"80\": {\"O\": 1}, \"81\": {\"O\": 1}, \"82\": {\"O\": 1}, \"83\": {\"O\": 1}, \"84\": {\"O\": 1}, \"85\": {\"O\": 1}, \"86\": {\"O\": 1}, \"87\": {\"O\": 1}, \"88\": {\"O\": 1}, \"89\": {\"O\": 1}, \"90\": {\"O\": 1}}" energy=-626.0942993164062 free_energy=-626.0942993164062 stress="-0.0007608229643665254 0.000665073050186038 -0.00013633766502607614 0.000665073050186038 -0.001678939675912261 -0.00018396155792288482 -0.00013633766502607614 -0.00018396155792288482 -0.0007570076268166304" pbc="T T T"
Cd      14.51858714       6.11336176       6.28261488        0      -0.01751959       0.01335595      -0.00463424
Cd      15.11641693       9.12621791       8.16970241        1      -0.14296788       0.04928011      -0.07904131
Cd       4.34782792       3.10286824       4.39779698        2       0.13495463      -0.06750949       0.07690305
H       15.61568433       8.94285195       5.23002713        3       0.02061195      -0.01380434      -0.00689319
H        3.84296774       3.28609914       7.33563105        4       0.00504440       0.03440200      -0.00726762
H       13.99828343       8.89211616       5.33226063        5      -0.00487040      -0.09410853       0.03342683
H        5.45985867       3.33776148       7.23216666        6       0.05774228       0.07352038      -0.00748067
H        8.60572256       4.18560687       7.58889091        7      -0.00399272      -0.00536251      -0.04105267
H       10.85742647       8.04203486       4.97676921        8      -0.04298596      -0.02326213       0.02888156
H        9.89866656       8.26856251       8.09276024        9       0.02769566       0.02015111      -0.02499967
H        9.56430283       3.95974209       4.47505507       10      -0.02906121      -0.06841807       0.02347594
H       12.73816109       5.05816005       8.36957201       11       0.04790466      -0.02760767      -0.01687594
H        6.72362251       7.17279728       4.19876858       12      -0.03626983       0.01144435       0.01678126
H       13.39403196      10.15088305      10.10536622       13       0.00192048       0.01333504       0.04570401
H        6.06920022       2.07912772       2.46290260       14      -0.01658829      -0.03152673      -0.09290895
H       11.93607182      11.04372426      11.88854698       15       0.06143343      -0.04702317      -0.01251686
H        7.52474409       1.18577199       0.67866040       16      -0.00710584       0.03053530       0.00451473
H        7.44651087       8.07838586       1.63454487       17      -0.02987498      -0.00303480       0.03406034
H       12.01402625       4.14979502      10.93204264       18       0.02976150       0.00848956      -0.04067725
H        9.78601643       7.52147499       2.13436968       19      -0.00684224      -0.04412640      -0.01703596
H        9.67753923       4.71128283      10.43079163       20      -0.01100476       0.03978691       0.00403646
H        8.17289723       8.80165920       9.72512237       21       0.04485284       0.01109671       0.00894187
H       11.28583931       3.42875619       2.84090563       22       0.00180922      -0.02724566      -0.02520336
H       10.15363025       8.56715602      11.16241028       23      -0.03527091       0.01722610       0.06194439
H        9.30738310       3.65919805       1.40254678       24       0.02591340      -0.00744879      -0.03710906
H        5.82291616       5.47267628       0.85046185       25      -0.01082286       0.01740603       0.01199274
H       13.63802202       6.75451935      11.71619548       26       0.05861563      -0.02518624       0.00426153
H        4.50367257       6.34476582       2.77116443       27       0.02317276       0.03360434       0.04749790
H       14.95663214       5.88448042       9.79518503       28      -0.00858701      -0.03453299      -0.02301571
H       11.74640043       7.05486642       2.48169644       29      -0.02008637      -0.01321940      -0.02766903
H        7.71494630       5.17577654      10.08532480       30       0.01947556       0.00984547       0.02601282
C        7.67874819       6.72796759       7.63942162       31       0.06532264       0.03039362       0.07318538
C       11.78219518       5.49882219       4.92623155       32      -0.03128207       0.08329254      -0.03328127
C        9.09522664       6.27249181       7.86754030       33      -0.08597767      -0.09954047      -0.08953470
C       10.36778819       5.95655993       4.69997807       34      -0.04823327      -0.03168760       0.04448390
C        9.39178573       4.90803649       7.79269808       35       0.03148678       0.07178627       0.04210600
C       10.06903733       7.31953738       4.77309037       36       0.06414062      -0.00802357      -0.01385563
C       12.54517849       7.75739682       8.36669495       37      -0.09363595       0.06312487       0.05222925
C        6.91702157       4.46985087       4.19833612       38       0.05015321       0.02501488      -0.02243226
C       11.42818823       6.76215914       8.25339799       39       0.03004956      -0.03816479       0.02404197
C        8.03260880       5.46710822       4.31356227       40       0.05078605      -0.07184377      -0.02901728
C       10.11172615       7.20066797       8.09321482       41       0.03606899       0.10785041      -0.00681450
C        9.34983337       5.02575355       4.47431686       42      -0.02756787       0.06579114       0.01497539
C       11.71597783       5.39470243       8.21626419       43      -0.02286685       0.00191788      -0.03482191
C        7.74556052       6.83363294       4.35130772       44      -0.00909619       0.02657433       0.02961618
C       10.70466509       4.46494714       7.96401949       45       0.05491700      -0.02964547      -0.00107063
C        8.75688217       7.76303526       4.60286420       46      -0.07874057      -0.00463763       0.00021076
C       11.01136845       2.99618559       7.88119300       47      -0.02891174       0.09983554       0.01030798
C        8.44973737       9.22968679       4.68503015       48       0.00623950       0.00108564      -0.02261758
C       15.12820560       9.95739177      11.38115355       49       0.04307486      -0.02099740       0.02080674
C        4.33307047       2.27063657       1.18625657       50       0.03536470      -0.00631201      -0.00661846
C       13.78817656      10.29115845      11.11039839       51      -0.01530528       0.06943790       0.07664060
C        5.67428521       1.93538586       1.45705185       52       0.00179678      -0.03746440      -0.09077290
C       12.97204608      10.78459564      12.11168299       53      -0.08975011       0.02853826       0.04891350
C        6.49077698       1.44418496       0.45341069       54      -0.00287670      -0.00474425       0.02198473
C        8.08878642       7.69311368       0.84408226       55       0.05516776      -0.00500394       0.01879865
C       11.37209818       4.53625382      11.72215513       56      -0.04316211      -0.00305403      -0.04100768
C        9.40954191       7.37698293       1.12243718       57      -0.02543532       0.00164271      -0.02796417
C       10.05144687       4.85303999      11.44340600       58       0.06699631      -0.01049945       0.06299397
C       10.27403107       6.88149938       0.12192246       59      -0.02573730      -0.02999824      -0.02363073
C        9.18755757       5.34609180      12.44547094       60       0.04364719       0.04108584       0.00891196
C       11.65970224       6.55171075       0.36640080       61      -0.05809790      -0.06463683      -0.00417039
C        7.80380133       5.67642484      12.20101128       62      -0.05542837       0.08469498       0.01270497
C        8.23445869       9.31571496      11.83847345       63       0.05354446      -0.08434942      -0.05816967
C       11.22791679       2.91119672       0.73060764       64      -0.04192119       0.07979685      -0.02525910
C       17.18149558       9.18003240      10.57626341       65      -0.07466790       0.05218166      -0.00581652
C        2.28135181       3.04898095       1.99152052       66       0.03229845      -0.03989385       0.03710259
C        9.58884485       8.94400912      12.02167392       67       0.02821290      -0.02817038      -0.03272413
C        9.87326639       3.28296425       0.54473055       68       0.00793210       0.02596788       0.08197904
C        4.78903546       5.78438746       0.70119074       69      -0.01012006       0.04856766       0.08834220
C       14.67370305       6.44379760      11.86636873       70      -0.07527646      -0.04435085      -0.13853136
C        4.04474729       6.28451025       1.78556178       71       0.01156913       0.01335414      -0.01491024
C       15.41643861       5.94379008      10.78133991       72      -0.01553524      -0.00730278      -0.00548558
C       12.29805819       6.67337170       1.62162689       73       0.05273185      -0.00532866      -0.02515608
C        7.16264607       5.55581067      10.94565269       74       0.00767274      -0.00671142       0.03821550
N       15.91182494       9.46257701      10.35253458       75       0.04846644      -0.05106166       0.06906971
N        3.55152692       2.76696522       2.21488188       76      -0.07725024       0.05474989      -0.05898595
O        6.82814910       5.81222965       7.37526083       77      -0.01611799      -0.14413220      -0.00769505
O       12.63162003       6.41792958       5.19000958       78       0.02330086       0.06598231       0.00008411
O        7.45472241       7.97563097       7.71189371       79       0.03840797       0.01817572      -0.04501742
O       12.00507377       4.25165780       4.85636585       80      -0.00532620      -0.04002389       0.04143300
O       13.75405195       7.28020835       8.19847142       81       0.02508856      -0.08603007      -0.05695145
O        5.70813982       4.95142017       4.36535095       82       0.00734647       0.01963523       0.04203951
O       12.31886716       8.96255837       8.57856877       83       0.01911390      -0.05233669       0.02327943
O        7.14247541       3.26446976       3.98910726       84      -0.02833121       0.05389075      -0.02452016
O        9.99484401       2.22744589       7.76645824       85      -0.16947535       0.12425901       0.02931800
O        9.46918761       9.99710609       4.79562120       86       0.09962517      -0.11363992      -0.02873074
O       12.20737006       2.58420841       7.95843368       87       0.00633478      -0.01462644       0.05197711
O        7.25267918       9.64376016       4.60922472       88       0.10588562      -0.01055214      -0.04699104
O       14.81242554       8.52017330       5.72403463       89      -0.06375164      -0.01713454       0.11013815
O        4.64713045       3.71129060       6.84204210       90      -0.01992100       0.00320884      -0.11739005
91
Lattice="9.57583271 0.0 0.0 4.5052730553378355 8.970666081796866 0.0 5.3830387372053945 3.2550658353875996 12.570302356083182" Properties=species:S:1:pos:R:3:spacegroup_kinds:I:1:forces:R:3 spacegroup="P 1" unit_cell=conventional occupancy="_JSON {\"0\": {\"Cd\": 1}, \"1\": {\"Cd\": 1}, \"2\": {\"Cd\": 1}, \"3\": {\"H\": 1}, \"4\": {\"H\": 1}, \"5\": {\"H\": 1}, \"6\": {\"H\": 1}, \"7\": {\"H\": 1}, \"8\": {\"H\": 1}, \"9\": {\"H\": 1}, \"10\": {\"H\": 1}, \"11\": {\"H\": 1}, \"12\": {\"H\": 1}, \"13\": {\"H\": 1}, \"14\": {\"H\": 1}, \"15\": {\"H\": 1}, \"16\": {\"H\": 1}, \"17\": {\"H\": 1}, \"18\": {\"H\": 1}, \"19\": {\"H\": 1}, \"20\": {\"H\": 1}, \"21\": {\"H\": 1}, \"22\": {\"H\": 1}, \"23\": {\"H\": 1}, \"24\": {\"H\": 1}, \"25\": {\"H\": 1}, \"26\": {\"H\": 1}, \"27\": {\"H\": 1}, \"28\": {\"H\": 1}, \"29\": {\"H\": 1}, \"30\": {\"H\": 1}, \"31\": {\"C\": 1}, \"32\": {\"C\": 1}, \"33\": {\"C\": 1}, \"34\": {\"C\": 1}, \"35\": {\"C\": 1}, \"36\": {\"C\": 1}, \"37\": {\"C\": 1}, \"38\": {\"C\": 1}, \"39\": {\"C\": 1}, \"40\": {\"C\": 1}, \"41\": {\"C\": 1}, \"42\": {\"C\": 1}, \"43\": {\"C\": 1}, \"44\": {\"C\": 1}, \"45\": {\"C\": 1}, \"46\": {\"C\": 1}, \"47\": {\"C\": 1}, \"48\": {\"C\": 1}, \"49\": {\"C\": 1}, \"50\": {\"C\": 1}, \"51\": {\"C\": 1}, \"52\": {\"C\": 1}, \"53\": {\"C\": 1}, \"54\": {\"C\": 1}, \"55\": {\"C\": 1}, \"56\": {\"C\": 1}, \"57\": {\"C\": 1}, \"58\": {\"C\": 1}, \"59\": {\"C\": 1}, \"60\": {\"C\": 1}, \"61\": {\"C\": 1}, \"62\": {\"C\": 1}, \"63\": {\"C\": 1}, \"64\": {\"C\": 1}, \"65\": {\"C\": 1}, \"66\": {\"C\": 1}, \"67\": {\"C\": 1}, \"68\": {\"C\": 1}, \"69\": {\"C\": 1}, \"70\": {\"C\": 1}, \"71\": {\"C\": 1}, \"72\": {\"C\": 1}, \"73\": {\"C\": 1}, \"74\": {\"C\": 1}, \"75\": {\"N\": 1}, \"76\": {\"N\": 1}, \"77\": {\"O\": 1}, \"78\": {\"O\": 1}, \"79\": {\"O\": 1}, \"80\": {\"O\": 1}, \"81\": {\"O\": 1}, \"82\": {\"O\": 1}, \"83\": {\"O\": 1}, \"84\": {\"O\": 1}, \"85\": {\"O\": 1}, \"86\": {\"O\": 1}, \"87\": {\"O\": 1}, \"88\": {\"O\": 1}, \"89\": {\"O\": 1}, \"90\": {\"O\": 1}}" energy=-626.0994262695312 free_energy=-626.0994262695312 stress="-0.0004555890045594424 0.0008511124760843813 -8.296177111333236e-05 0.0008511124760843813 -0.0016094048041850328 -0.00022282324789557606 -8.296177111333236e-05 -0.00022282324789557606 -0.0008637005812488496" pbc="T T T"
Cd      14.51702473       6.11414096       6.28154369        0      -0.00214718       0.00865112      -0.00477142
Cd      15.11404388       9.12871676       8.16700923        1      -0.13722783       0.03358142      -0.06742697
Cd       4.34980197       3.10299123       4.39826569        2       0.11533843      -0.06317652       0.07046258
H       15.61471891       8.94380424       5.22899707        3       0.00567730      -0.01900563      -0.00115311
H        3.84175642       3.28660791       7.33441511        4       0.04152793       0.05097628      -0.02636319
H       13.99778508       8.89001965       5.33054263        5      -0.05603746      -0.06805137       0.00858185
H        5.46143511       3.34069703       7.23074060        6       0.00204161       0.09634094      -0.03112569
H        8.60415852       4.18631858       7.58700921        7       0.02786399       0.01930261      -0.03121287
H       10.85453298       8.04250810       4.97712639        8       0.00916937       0.01194955       0.03425333
H        9.89790088       8.26971458       8.09096978        9       0.01840544       0.05290219      -0.02225855
H        9.56265211       3.95842422       4.47516552       10      -0.03175669      -0.01130474       0.02203436
H       12.73845722       5.05831272       8.36872998       11       0.00132123      -0.01289357      -0.02248768
H        6.72087382       7.17385990       4.19817768       12      -0.00779785      -0.00299270       0.01743916
H       13.39300344      10.15183611      10.10546913       13       0.01703373       0.01633512       0.05625783
H        6.06848375       2.07935559       2.46029359       14      -0.01158540      -0.03125863      -0.07151021
H       11.93648206      11.04426709      11.88917331       15       0.01241536      -0.03704863      -0.02928414
H        7.52431032       1.18630519       0.67697948       16      -0.02775697       0.03490877       0.00242872
H        7.44414161       8.08014702       1.63387156       17       0.01832999      -0.02912416      -0.00919180
H       12.01387451       4.15171430      10.93059665       18       0.02853684       0.00145267      -0.05185080