106
Lattice="10.35486145 0.0 0.0 -3.7935236528998977 10.033197054409673 0.0 -2.6466387516809746 -4.310192827822143 11.402553095911948" Properties=species:S:1:pos:R:3:spacegroup_kinds:I:1:forces:R:3 spacegroup="P 1" unit_cell=conventional occupancy="_JSON {\"0\": {\"Zn\": 1}, \"1\": {\"Zn\": 1}, \"2\": {\"H\": 1}, \"3\": {\"H\": 1}, \"4\": {\"H\": 1}, \"5\": {\"H\": 1}, \"6\": {\"H\": 1}, \"7\": {\"H\": 1}, \"8\": {\"H\": 1}, \"9\": {\"H\": 1}, \"10\": {\"H\": 1}, \"11\": {\"H\": 1}, \"12\": {\"H\": 1}, \"13\": {\"H\": 1}, \"14\": {\"H\": 1}, \"15\": {\"H\": 1}, \"16\": {\"H\": 1}, \"17\": {\"H\": 1}, \"18\": {\"H\": 1}, \"19\": {\"H\": 1}, \"20\": {\"H\": 1}, \"21\": {\"H\": 1}, \"22\": {\"H\": 1}, \"23\": {\"H\": 1}, \"24\": {\"H\": 1}, \"25\": {\"H\": 1}, \"26\": {\"H\": 1}, \"27\": {\"H\": 1}, \"28\": {\"H\": 1}, \"29\": {\"H\": 1}, \"30\": {\"H\": 1}, \"31\": {\"H\": 1}, \"32\": {\"H\": 1}, \"33\": {\"H\": 1}, \"34\": {\"H\": 1}, \"35\": {\"H\": 1}, \"36\": {\"H\": 1}, \"37\": {\"H\": 1}, \"38\": {\"H\": 1}, \"39\": {\"H\": 1}, \"40\": {\"H\": 1}, \"41\": {\"H\": 1}, \"42\": {\"H\": 1}, \"43\": {\"H\": 1}, \"44\": {\"H\": 1}, \"45\": {\"H\": 1}, \"46\": {\"C\": 1}, \"47\": {\"C\": 1}, \"48\": {\"C\": 1}, \"49\": {\"C\": 1}, \"50\": {\"C\": 1}, \"51\": {\"C\": 1}, \"52\": {\"C\": 1}, \"53\": {\"C\": 1}, \"54\": {\"C\": 1}, \"55\": {\"C\": 1}, \"56\": {\"C\": 1}, \"57\": {\"C\": 1}, \"58\": {\"C\": 1}, \"59\": {\"C\": 1}, \"60\": {\"C\": 1}, \"61\": {\"C\": 1}, \"62\": {\"C\": 1}, \"63\": {\"C\": 1}, \"64\": {\"C\": 1}, \"65\": {\"C\": 1}, \"66\": {\"C\": 1}, \"67\": {\"C\": 1}, \"68\": {\"C\": 1}, \"69\": {\"C\": 1}, \"70\": {\"C\": 1}, \"71\": {\"C\": 1}, \"72\": {\"C\": 1}, \"73\": {\"C\": 1}, \"74\": {\"C\": 1}, \"75\": {\"C\": 1}, \"76\": {\"C\": 1}, \"77\": {\"C\": 1}, \"78\": {\"C\": 1}, \"79\": {\"C\": 1}, \"80\": {\"C\": 1}, \"81\": {\"C\": 1}, \"82\": {\"N\": 1}, \"83\": {\"N\": 1}, \"84\": {\"N\": 1}, \"85\": {\"N\": 1}, \"86\": {\"N\": 1}, \"87\": {\"N\": 1}, \"88\": {\"N\": 1}, \"89\": {\"N\": 1}, \"90\": {\"N\": 1}, \"91\": {\"N\": 1}, \"92\": {\"N\": 1}, \"93\": {\"N\": 1}, \"94\": {\"O\": 1}, \"95\": {\"O\": 1}, \"96\": {\"O\": 1}, \"97\": {\"O\": 1}, \"98\": {\"O\": 1}, \"99\": {\"O\": 1}, \"100\": {\"O\": 1}, \"101\": {\"O\": 1}, \"102\": {\"O\": 1}, \"103\": {\"O\": 1}, \"104\": {\"O\": 1}, \"105\": {\"O\": 1}}" energy=-682.9089965820312 free_energy=-682.9089965820312 stress="-0.0035038890782743692 -0.0006937204743735492 -0.001454634708352387 -0.0006937204743735492 -0.0010283893207088113 -0.00031735736411064863 -0.001454634708352387 -0.00031735736411064863 -0.0027651716955006123" pbc="T T T"
Zn       0.25408430       6.42451045       8.22287870        0      -0.14448529      -0.39691949       0.43168050
Zn       3.64610037      -0.64626798       3.13298656        1       0.04048883      -0.13053709       0.20330369
H        2.15695675       2.72731816       9.26254197        2      -0.78873038       0.15633398      -0.40460974
H        1.75651053       3.00144614       2.11276024        3       0.58297575       0.10527901       0.36882606
H        3.02043974       4.77630961       9.20973065        4      -1.49818659       0.57145578      -1.95898604
H        0.87567603       0.91116093       2.18855719        5      -0.14065665       0.14345488      -0.30914271
H        5.81283118       3.94171748       4.22937584        6      -0.03153588       0.05831215       0.93141615
H       -1.89769740       1.80392563       7.14498546        7       0.03870740       0.03976557       0.27528319
H        3.85776866       2.76752958       3.94200486        8      -0.16331282       0.13349277       0.84408474
H        0.01269988       2.96075773       7.44425325        9       0.40520632      -0.27452117      -1.13494349
H        5.50437656      -1.52986420       9.74386063       10      -0.25773856       0.07351495      -0.06809866
H       -1.63644557       7.29105817       1.64428029       11       1.58820319      -1.00120485       0.65812337
H        5.24322619       0.87128882      10.31337660       12       0.85848498       0.40202323       0.61451393
H       -1.33908185       4.84902073       1.06261665       13       0.62392128       0.52453887       0.43288499
H        1.39673822       0.71702778       8.36556514       14      -1.42677283       0.69003105      -0.55163074
H        2.53001816       4.96764910       3.02626994       15      -0.54080564       0.20965549      -0.02983025
H        1.83678399      -1.63052259       7.80208884       16       0.31474289      -0.03195827       0.01607704
H        2.08465595       7.37964146       3.63473550       17      -0.80690521      -0.55735695      -0.47887689
H       -2.42200118      -3.53744747      10.12997314       18       0.10300872       1.42253029      -1.05362892
H        6.32307275       9.23192537       1.31764364       19       0.04641068       0.73219776      -0.66504264
H       -5.07348698       5.36093929      10.85608289       20       1.48271787      -0.33350390      -0.01538028
H        8.97919885       0.34994232       0.56341554       21      -0.27709091       0.03871956      -0.31145960
H       -0.54481949       6.12517366       5.30653487       22      -0.28385603      -0.13547020      -0.02867511
H        4.47510040      -0.39347899       6.13445818       23       0.69382888       0.50935978      -0.59685618
H       -2.50001869       5.10271090       4.09237554       24      -0.08047359      -0.03121450       0.12288770
H        6.41674958       0.62528318       7.31010682       25      -0.03432721      -0.00454092       0.02891393
H       -4.31530912       4.27355420       7.96899770       26       0.63092208       0.32637605      -0.68142337
H        8.22496309       1.44204471       3.47613726       27      -0.51659822      -0.13233159       0.24364312
H       -2.28628663       5.25201944       8.95400573       28       0.26041329      -0.01434883       0.36884159
H        6.16777420       0.44597291       2.42961641       29       0.22931503       0.04142267      -0.36807823
H        2.68396577       1.62729275       6.29660494       30       0.19064979       0.09174340      -0.03906525
H        1.23275067       4.06579415       5.11004950       31       0.07309279      -0.37622929       0.42526466
H        2.03381184       1.72481875       4.63142356       32       0.33405405       0.48886487       0.74012679
H        1.86538902       3.98104634       6.75044358       33       0.22182278       0.27379256       0.54235065
H        4.05767295       6.55754126       5.41005765       34      -0.16443944       0.29272962       0.72570443
H       -0.13750882      -0.81876179       5.98590176       35       0.04559368       0.04181574       0.27062368
H        4.61394085       6.39480653       7.13251103       36      -0.43423557       0.37049401      -0.31700319
H       -0.64999469      -0.71984744       4.28612600       37      -0.22698367       0.18970074      -0.23762092
H        7.88720660      -2.04849957       6.45936666       38       0.18950124       0.70610780      -0.00929555
H       -3.93234181       7.74442825       4.97596169       39      -0.00264853       0.46823531       0.11797685
H        2.36959280       6.90063850       0.10720288       40       0.29123491       0.86520660      -0.12800810
H        1.50063346      -1.18909838      11.30791613       41      -0.20134464      -0.76075637       0.04928759
H        2.23340888       8.57075913       0.79729967       42      -0.20018044       0.27874756      -0.11604154
H        1.69136112      -2.88648173      10.63924678       43      -0.21681958       0.19330248       0.26252717
H        3.83239499       7.85901260       0.47792837       44      -0.66127676       0.09646603      -0.37800023
H        0.08363260      -2.15023039      10.92900760       45      -0.46132356      -0.09105922      -0.11672146
C        4.60431168      -0.97524248       9.44287706       46       0.69058806      -1.23718345      -0.59788454
C       -0.68847813       6.70697209       1.99746236       47      -2.39297199       1.36377978      -1.05797720
C        4.50299684       0.34597397       9.77471288       48      -2.23694706       0.51644045      -0.71205789
C       -0.54481714       5.39116687       1.63128354       49      -0.94784385      -0.74718958      -0.67435342
C        3.29382592       1.03141233       9.38884486       50      -0.38806450      -1.44124329      -0.96562159
C        0.62475099       4.72173099       2.00685031       51      -0.08785696       0.27664658       0.41190869
C        2.30178066       0.27356797       8.63848313       52       2.97336626      -0.40284875       1.70024920
C        1.57048194       5.44234284       2.73779923       53       1.00036788       0.93061000       0.45062685
C        2.58800138      -1.06072337       8.36184321       54      -1.88233900       0.73534471      -0.73013061
C        1.32893826       6.78252999       3.05732235       55       1.58947158      -0.32717174       0.41703790
C        3.87150060       3.26430689      10.28911647       56      -0.28028253      -1.63652301      -0.57926756
C        0.02592976       2.49906352       1.15653406       57      -0.40206200       0.20617211      -0.62290019
C       -6.08511772       5.61432634      10.69014762       58      -2.31079268      -1.15717053       0.84607726
C       10.04570779       0.13451139       0.66893197       59      -0.46332347      -1.99569535      -0.03415826
C       -1.39518285       5.67380123       5.83105868       60      -0.19401819      -0.09919275      -0.28230840
C        5.32111764       0.08476685       5.57420288       61      -0.82125878      -0.95309472      -0.81601214
C       -2.50531134       5.10529536       5.18792736       62       1.46633744       0.91079289      -0.61844325
C        6.41261631       0.62436111       6.21778310       63       0.39672261       0.08740322       0.57315552
C       -3.56094984       4.60140237       5.92539949       64      -0.93101728      -0.86179972      -0.43666828
C        7.50978163       1.14273518       5.49467581       65      -1.30192041      -0.10098463      -0.77020168
C       -3.50399555       4.65651304       7.30073884       66       0.40993008       0.09917463       1.99666297
C        7.38342046       1.07491396       4.09533961       67       1.93784797       0.51726747      -0.33831158
C       -2.34465786       5.18979384       7.87836456       68      -0.48965377       0.25821111      -0.46996835
C        6.30169559       0.50149968       3.50009343       69      -1.34903288      -0.47518855       0.38676003
C        4.58095852       3.45540789       5.81467678       70      -0.29381242       0.31716102       0.83174694
C       -0.65985104       2.27142553       5.59278288       71       0.40092298      -0.53818852      -3.17629623
C        2.47910777       2.33779105       5.47744962       72      -1.27259958      -0.94105154      -0.61171460
C        1.46043540       3.36499939       5.95909103       73       0.34797373       0.45212767      -1.38895655
C        2.47484979       6.70097296       6.85493667       74      -2.54348826      -0.00509380      -1.00563800
C        1.49134796      -0.98547337       4.56065198       75      -0.70958793      -0.38565484       1.57305479
C        3.89408163       6.92558789       6.46204711       76       0.67804790      -1.28791964      -0.40695095
C        0.04354010      -1.18605805       4.97655647       77       0.25593948      -0.84028566      -0.13069472
C        0.17317719       4.18190322      10.12388265       78      -0.72306776       2.98436379      -0.23733339
C        3.71894191       1.53222780       1.26587590       79      -0.31492788      -0.54416102       2.58590746
C        2.77693024       7.95596379       0.08153833       80       0.64580190      -1.75197434       1.62778378
C        1.09583505      -2.23943426      11.31556708       81       0.98364568       1.09014213      -1.37425256
N        3.70058364      -1.68876986       8.69649233       82       1.23705626       0.40234303       1.19936979
N        0.21237965       7.41206115       2.68391181       83      -0.16262959       0.54763031       0.17927554
N        3.02651970       2.34675137       9.59684385       84       1.22419941       0.53939354       0.94969863
N        0.87797385       3.40990798       1.80153600       85      -0.64737093      -1.64456081      -0.73027784
N        3.57024383       4.54387581       9.97113966       86       2.27792382       0.33646178       2.79021931
N        0.29253447       1.17001572       1.37803244       87       1.47265363       1.21421003       1.54833460
N       -1.30921806       5.72082868       7.17071050       88      -0.57089323      -0.49131906       0.38184619
N        5.25689315      -0.00771553       4.20414570       89       0.01979307       0.31112820       0.99808466
N        5.73062360       4.01133420       5.26189492       90      -0.11187463      -0.13760018      -1.80815339
N       -1.79608402       1.73262836       6.14469313       91      -0.25428757      -0.11767706       0.99788046
N        3.66890091       2.92184270       4.97179558       92       0.94081867      -0.02601168      -1.86859250
N        0.25666692       2.76978917       6.42035033       93      -0.48190346       0.53526092       2.98411798
O        4.77666854       2.87510022      11.05336437       94      -0.26602793       0.58929026      -0.07200332
O       -0.89044648       2.84532185       0.38449884       95       0.08087456       0.07007629       0.09434848
O        4.33593259       3.50714241       7.02832476       96       0.29236904       0.04232571       0.39620867
O       -0.45259576       2.21242927       4.34522355       97      -0.25909317       0.17023253       1.29092312
O        2.19520214       6.16931257       8.02023276       98       0.74880266       0.30161968      -0.19112366
O        1.66248125      -0.48342361       3.39595746       99       0.70456737       0.29751799      -1.09193957
O        1.50039936       7.00193075       6.05035917      100       1.78804862      -0.28021893       1.26467335
O        2.42211426      -1.30700132       5.34878247      101      -0.03490576       0.15115194      -0.52009171
O       -0.07212264       5.48717409      10.02365687      102       0.36576176      -1.28338754      -0.13773334
O        3.93644453       0.25804329       1.40809936      103      -0.02397415       0.64975077      -0.53733546
O        0.43860381       3.45579469       9.15059325      104       0.26850131      -0.83984935      -1.06267369
O        3.44498769       2.29706299       2.27588332      105       0.26692829      -0.61750925      -1.09385014
106
Lattice="10.35486145 0.0 0.0 -3.7935236528998977 10.033197054409673 0.0 -2.6466387516809746 -4.310192827822143 11.402553095911948" Properties=species:S:1:pos:R:3:spacegroup_kinds:I:1:forces:R:3 spacegroup="P 1" unit_cell=conventional occupancy="_JSON {\"0\": {\"Zn\": 1}, \"1\": {\"Zn\": 1}, \"2\": {\"H\": 1}, \"3\": {\"H\": 1}, \"4\": {\"H\": 1}, \"5\": {\"H\": 1}, \"6\": {\"H\": 1}, \"7\": {\"H\": 1}, \"8\": {\"H\": 1}, \"9\": {\"H\": 1}, \"10\": {\"H\": 1}, \"11\": {\"H\": 1}, \"12\": {\"H\": 1}, \"13\": {\"H\": 1}, \"14\": {\"H\": 1}, \"15\": {\"H\": 1}, \"16\": {\"H\": 1}, \"17\": {\"H\": 1}, \"18\": {\"H\": 1}, \"19\": {\"H\": 1}, \"20\": {\"H\": 1}, \"21\": {\"H\": 1}, \"22\": {\"H\": 1}, \"23\": {\"H\": 1}, \"24\": {\"H\": 1}, \"25\": {\"H\": 1}, \"26\": {\"H\": 1}, \"27\": {\"H\": 1}, \"28\": {\"H\": 1}, \"29\": {\"H\": 1}, \"30\": {\"H\": 1}, \"31\": {\"H\": 1}, \"32\": {\"H\": 1}, \"33\": {\"H\": 1}, \"34\": {\"H\": 1}, \"35\": {\"H\": 1}, \"36\": {\"H\": 1}, \"37\": {\"H\": 1}, \"38\": {\"H\": 1}, \"39\": {\"H\": 1}, \"40\": {\"H\": 1}, \"41\": {\"H\": 1}, \"42\": {\"H\": 1}, \"43\": {\"H\": 1}, \"44\": {\"H\": 1}, \"45\": {\"H\": 1}, \"46\": {\"C\": 1}, \"47\": {\"C\": 1}, \"48\": {\"C\": 1}, \"49\": {\"C\": 1}, \"50\": {\"C\": 1}, \"51\": {\"C\": 1}, \"52\": {\"C\": 1}, \"53\": {\"C\": 1}, \"54\": {\"C\": 1}, \"55\": {\"C\": 1}, \"56\": {\"C\": 1}, \"57\": {\"C\": 1}, \"58\": {\"C\": 1}, \"59\": {\"C\": 1}, \"60\": {\"C\": 1}, \"61\": {\"C\": 1}, \"62\": {\"C\": 1}, \"63\": {\"C\": 1}, \"64\": {\"C\": 1}, \"65\": {\"C\": 1}, \"66\": {\"C\": 1}, \"67\": {\"C\": 1}, \"68\": {\"C\": 1}, \"69\": {\"C\": 1}, \"70\": {\"C\": 1}, \"71\": {\"C\": 1}, \"72\": {\"C\": 1}, \"73\": {\"C\": 1}, \"74\": {\"C\": 1}, \"75\": {\"C\": 1}, \"76\": {\"C\": 1}, \"77\": {\"C\": 1}, \"78\": {\"C\": 1}, \"79\": {\"C\": 1}, \"80\": {\"C\": 1}, \"81\": {\"C\": 1}, \"82\": {\"N\": 1}, \"83\": {\"N\": 1}, \"84\": {\"N\": 1}, \"85\": {\"N\": 1}, \"86\": {\"N\": 1}, \"87\": {\"N\": 1}, \"88\": {\"N\": 1}, \"89\": {\"N\": 1}, \"90\": {\"N\": 1}, \"91\": {\"N\": 1}, \"92\": {\"N\": 1}, \"93\": {\"N\": 1}, \"94\": {\"O\": 1}, \"95\": {\"O\": 1}, \"96\": {\"O\": 1}, \"97\": {\"O\": 1}, \"98\": {\"O\": 1}, \"99\": {\"O\": 1}, \"100\": {\"O\": 1}, \"101\": {\"O\": 1}, \"102\": {\"O\": 1}, \"103\": {\"O\": 1}, \"104\": {\"O\": 1}, \"105\": {\"O\": 1}}" energy=-681.5555419921875 free_energy=-681.5555419921875 stress="-0.003768659196794033 -0.0015542992623522878 -0.0001531614689156413 -0.0015542992623522878 -0.007618616335093975 0.00041854692972265184 -0.0001531614689156413 0.00041854692972265184 -0.0008492402266710997" pbc="T T T"
Zn       0.24887514       6.44561686       8.22171571        0       0.11271104      -0.49241298       0.49998146
Zn       3.62397834      -0.66188224       3.13168137        1       0.07863489      -0.09861743       0.03024704
H        2.15499420       2.74162301       9.25482816        2      -0.47838598       0.03559040      -0.24341127
H        1.73828169       2.98684580       2.11803810        3       1.18126273      -0.09506077       0.63530141
H        3.04660440       4.78783294       9.21611386        4      -1.50286460       0.33754250      -1.97691751
H        0.89252990       0.93730784       2.19563431        5      -0.96622568       0.22568391      -1.41454864
H        5.78482292       3.95941876       4.20904928        6      -0.22018749      -0.11570270       0.90425050
H       -1.88275643       1.79631823       7.15575628        7      -0.04421962      -0.08788753      -0.93660879
H        3.86855639       2.75838987       3.92769661        8      -0.34879553       0.12639239       1.39830041
H        0.02894184       2.95334055       7.44098834        9      -0.02015250      -0.02238829       0.09687108
H        5.52275781      -1.50791820       9.73625077       10      -0.74598491       0.26267064      -0.08366302
H       -1.61095063       7.31318157       1.62611782       11       1.66483474      -1.38043976       0.64183950
H        5.23247998       0.89558202      10.32416696       12       0.59864056       0.26078284       0.35041493
H       -1.34929632       4.82529994       1.08923783       13       0.80611491       0.72457504       0.55007017
H        1.38698698       0.71264675       8.33836886       14      -1.36158109       0.72295648      -0.50619423
H        2.54353442       4.95658538       3.04858717       15      -1.39945090       0.76412749      -0.35853744
H        1.83747102      -1.65821704       7.82295759       16       0.25505024      -0.11803968      -0.15581018
H        2.10085080       7.38413980       3.60667947       17      -0.69134563      -0.34685680      -0.22045656
H       -2.39433395      -3.56171775      10.11787800       18      -0.23881336       2.35991764      -1.74160242
H        6.31623461       9.25459339       1.31604771       19       0.05074203       0.23583314      -0.50658441
H       -5.05102113       5.38859542      10.85386074       20       0.90310407      -0.36398810      -0.10163102
H        8.98955338       0.35292048       0.53587368       21      -0.95781994       0.05188261      -0.38127628
H       -0.55589209       6.09732559       5.28958117       22      -0.56572497      -0.08988509       0.20529342
H        4.50147540      -0.41880332       6.11536028       23       0.63613451       0.63981986      -0.40134788
H       -2.49125330       5.11012577       4.10523430       24      -0.08269772      -0.02329016       0.20126623
H        6.42340621       0.64739703       7.33999397       25      -0.00755211       0.00548608      -0.10497780
H       -4.29637630       4.25837289       7.96228222       26       0.06672981       0.08003248      -0.50913274
H        8.25464788       1.42619359       3.45814246       27      -1.35644984      -0.48850659       0.63579154
H       -2.26044449       5.24344474       8.98124325       28      -0.15737775      -0.27444592      -0.34198400
H        6.14110142       0.46511296       2.41580094       29       0.53158671       0.04602090       0.49381009
H        2.65850083       1.64982604       6.28427869       30       0.59814024      -0.92942917       1.17620850
H        1.23962987       4.08684518       5.08413842       31       0.06393769      -0.72118402       0.88425028
H        2.01715898       1.71973001       4.60526031       32       0.87036896       0.95143378       1.64923608
H        1.87350117       3.95794566       6.77982616       33      -0.19889525       0.03616828      -0.23794000
H        4.08063806       6.58160693       5.40741712       34      -0.18203175       0.21153194       0.49848902
H       -0.14087625      -0.83848506       5.98329088       35      -0.13613170       0.49730328       1.12212408
H        4.62358757       6.39225316       7.11556885       36      -0.54036844       0.38472363      -0.27609068
H       -0.64488926      -0.73775054       4.26007347       37       0.22137573      -0.01993906       0.39406937
H        7.89779248      -2.05412292       6.46520014       38       0.25077909       1.13464189       0.03098067
H       -3.92243327       7.75572532       4.99890210       39       0.03152682       0.34444708       0.09688180
H        2.37596914       6.92000733       0.08181904       40       0.26347452       0.87034589      -0.15278441
H        1.50518594      -1.20060053      11.30226297       41      -0.19683430      -0.36511326       0.09515034
H        2.21103919       8.57322475       0.82292046       42       0.33553785      -0.16478017      -0.82282454
H        1.70251937      -2.89751592      10.63099679       43      -0.75132716       0.68263507       0.95640975
H        3.80791193       7.84902029       0.48939634       44      -0.18131962       0.19741102      -0.35660094
H        0.07671696      -2.16457297      10.94712622       45      -0.53388047      -0.00226264      -0.17174144
C        4.59047541      -0.95570606       9.46755877       46       1.62790370      -1.68570924      -1.00738215
C       -0.67664507       6.67907585       1.97568461       47      -2.72828150       3.28485155      -0.51458311
C        4.51025355       0.36279755       9.74983736       48      -2.35108590       0.77402598       0.02398123
C       -0.55327461       5.39354510       1.65133781       49      -0.22173554      -3.16523933      -1.19267762
C        3.26841404       1.01903573       9.39324711       50       0.15523338      -0.85898435      -1.30730259
C        0.65354303       4.70448540       2.02111734       51      -1.91779923       1.97286773       0.02880982
C        2.30242517       0.29543554       8.62194681       52       2.67776823      -2.03802514       1.44599104
C        1.55532893       5.46121953       2.72987483       53       3.10282612      -0.22974011       1.28472233
C        2.59616678      -1.08544056       8.35808772       54      -3.05497003       2.85573459      -0.71379089
C        1.33273057       6.79415898       3.06302462       55       1.48819053      -0.69126123       0.03552570
C        3.88627497       3.24351757      10.27982617       56       0.61951745      -2.07853317       0.52589506
C        0.03852758       2.52677714       1.15158062       57      -0.63566768      -0.64297247      -0.46256563
C       -6.08196973       5.60951715      10.66205064       58      -1.46120024      -2.38039041       2.27693295
C       10.03021737       0.11647751       0.64842346       59       0.55041003      -0.65064478      -0.00590298
C       -1.42413030       5.68630283       5.83827714       60       0.76521093       0.01569189       0.58740377
C        5.33742585       0.10535656       5.58500570       61      -1.72432065      -1.56981218      -1.71039021
C       -2.51775260       5.10991878       5.20485878       62       1.53134680       0.99819267      -1.61250377
C        6.41198623       0.64684217       6.24559758       63       0.51408035       0.18944973      -0.32230699
C       -3.57471711       4.59327071       5.89836942       64      -1.56479597      -1.14301074       0.29371601
C        7.48557960       1.16045475       5.47055424       65      -0.99194604      -0.25177440       0.03134348
C       -3.52807301       4.63819272       7.27461084       66       1.36473107       0.44263053       2.42253971
C        7.35771534       1.05171450       4.06757510       67       5.27251768       2.27403593       1.11286259
C       -2.36501634       5.16075687       7.88785753       68       0.19854772       0.79141104      -0.41555536
C        6.31395054       0.50732295       3.51297303       69      -4.63097858      -1.86268473      -2.61124134
C        4.60383537       3.42940538       5.84089471       70      -1.18033850      -0.09715126      -2.58276772
C       -0.66461221       2.28222228       5.58432264       71       0.14119163      -0.58622426      -2.43607211
C        2.50196017       2.33821008       5.50051852       72      -3.03768826      -0.60692954      -3.04334617
C        1.43881792       3.36449575       5.94793515       73       1.21476102       1.17655778      -0.50819284
C        2.45866374       6.70840687       6.82736683       74      -0.78661489      -0.02866346      -0.49095410
C        1.47681917      -0.98148364       4.57568921       75       0.66221935      -0.04046135       1.52486181
C        3.90022177       6.93297982       6.45381244       76       0.43146491      -1.67389679      -0.31497765
C        0.05780424      -1.17690088       4.99714400       77      -0.56483161      -1.15296316      -1.39034975
C        0.16353917       4.19805490      10.14315897       78      -0.22813053       2.48190212      -1.58785737
C        3.71167759       1.54890190       1.28644289       79       0.13512583      -1.53076363       2.29125619
C        2.78565980       7.97682316       0.06230594       80      -0.49394178      -1.88981128       3.55045748
C        1.08687125      -2.23110990      11.33558121       81       1.46063936       0.36286026      -2.08901405
N        3.69870407      -1.66050816       8.69140536       82       2.17849827      -0.83072466       1.66693926
N        0.22654027       7.38682294       2.66569884       83      -0.58850527       1.59514809       0.26443255
N        3.03178380       2.34277931       9.57920719       84       1.03654480       0.88355613       1.10836601
N        0.89070992       3.41962379       1.80466712       85      -0.70714808      -2.35069752      -0.98577082
N        3.57198207       4.51925181       9.98559677       86       2.26350403       0.80570585       2.26807261
N        0.27364617       1.18378667       1.35306905       87       2.47914433       0.74724764       2.60004854
N       -1.30600673       5.72529369       7.19802448       88      -1.58960390      -0.91516948      -0.50943756
N        5.22987392       0.00192692       4.17985409       89       1.14524889       0.71484566       2.60644293
N        5.70773996       3.99230324       5.24198403       90       1.12774837       0.49204212      -1.45126092
N       -1.80844436       1.73204360       6.12142020       91      -0.12197240       0.13009301       1.98798609
N        3.67263941       2.91277744       4.97374398       92       1.49261498       0.11916684      -1.87834120
N        0.22868789       2.79622416       6.44391086       93       0.00101608       0.05371901       0.67945290
O        4.80665218       2.85395438      11.07701004       94      -1.55925024       1.01136637      -1.28553128
O       -0.89056545       2.87379734       0.41240964       95      -0.37557089       0.43736550      -0.46641332
O        4.31898862       3.48001722       7.00763688       96       0.24210310       0.22868091       3.23968792
O       -0.45204206       2.22070987       4.34510362       97      -0.08933043       0.27041203       1.01191437
O        2.20571760       6.18641553       7.99671231       98       0.26505148       0.12341715       0.21115625
O        1.63481324      -0.46454049       3.40916354       99       0.71439135       0.05008170      -0.93322176
O        1.51659080       7.01298919       6.03482082      100       0.64627290      -0.02160943       0.46018741
O        2.44901302      -1.27732475       5.34969673      101      -0.79309338       0.17539443      -0.92968112
O       -0.05053360       5.47952424      10.01550400      102       0.05353241      -0.08490196       0.01645568
O        3.96547691       0.26483724       1.40054002      103      -0.27832234       0.96101558      -0.25998336
O        0.41058078       3.46144119       9.16542460      104       0.31991976      -1.02785599      -1.09398651
O        3.43288205       2.28013052       2.30535393      105       0.14357714      -0.32259202      -0.98865163
106