104
Lattice="8.9012907 0.0 0.0 -8.01130184340637e-05 9.029838569644618 0.0 7.905295117346097e-05 -2.5617176079715955 13.538248600820383" Properties=species:S:1:pos:R:3:spacegroup_kinds:I:1:forces:R:3 spacegroup="P 1" unit_cell=conventional occupancy="_JSON {\"0\": {\"Cu\": 1}, \"1\": {\"Cu\": 1}, \"2\": {\"Cu\": 1}, \"3\": {\"Cu\": 1}, \"4\": {\"H\": 1}, \"5\": {\"H\": 1}, \"6\": {\"H\": 1}, \"7\": {\"H\": 1}, \"8\": {\"H\": 1}, \"9\": {\"H\": 1}, \"10\": {\"H\": 1}, \"11\": {\"H\": 1}, \"12\": {\"H\": 1}, \"13\": {\"H\": 1}, \"14\": {\"H\": 1}, \"15\": {\"H\": 1}, \"16\": {\"H\": 1}, \"17\": {\"H\": 1}, \"18\": {\"H\": 1}, \"19\": {\"H\": 1}, \"20\": {\"H\": 1}, \"21\": {\"H\": 1}, \"22\": {\"H\": 1}, \"23\": {\"H\": 1}, \"24\": {\"H\": 1}, \"25\": {\"H\": 1}, \"26\": {\"H\": 1}, \"27\": {\"H\": 1}, \"28\": {\"H\": 1}, \"29\": {\"H\": 1}, \"30\": {\"H\": 1}, \"31\": {\"H\": 1}, \"32\": {\"H\": 1}, \"33\": {\"H\": 1}, \"34\": {\"H\": 1}, \"35\": {\"H\": 1}, \"36\": {\"H\": 1}, \"37\": {\"H\": 1}, \"38\": {\"H\": 1}, \"39\": {\"H\": 1}, \"40\": {\"C\": 1}, \"41\": {\"C\": 1}, \"42\": {\"C\": 1}, \"43\": {\"C\": 1}, \"44\": {\"C\": 1}, \"45\": {\"C\": 1}, \"46\": {\"C\": 1}, \"47\": {\"C\": 1}, \"48\": {\"C\": 1}, \"49\": {\"C\": 1}, \"50\": {\"C\": 1}, \"51\": {\"C\": 1}, \"52\": {\"C\": 1}, \"53\": {\"C\": 1}, \"54\": {\"C\": 1}, \"55\": {\"C\": 1}, \"56\": {\"C\": 1}, \"57\": {\"C\": 1}, \"58\": {\"C\": 1}, \"59\": {\"C\": 1}, \"60\": {\"C\": 1}, \"61\": {\"C\": 1}, \"62\": {\"C\": 1}, \"63\": {\"C\": 1}, \"64\": {\"C\": 1}, \"65\": {\"C\": 1}, \"66\": {\"C\": 1}, \"67\": {\"C\": 1}, \"68\": {\"C\": 1}, \"69\": {\"C\": 1}, \"70\": {\"C\": 1}, \"71\": {\"C\": 1}, \"72\": {\"C\": 1}, \"73\": {\"C\": 1}, \"74\": {\"C\": 1}, \"75\": {\"C\": 1}, \"76\": {\"C\": 1}, \"77\": {\"C\": 1}, \"78\": {\"C\": 1}, \"79\": {\"C\": 1}, \"80\": {\"C\": 1}, \"81\": {\"C\": 1}, \"82\": {\"C\": 1}, \"83\": {\"C\": 1}, \"84\": {\"C\": 1}, \"85\": {\"C\": 1}, \"86\": {\"C\": 1}, \"87\": {\"C\": 1}, \"88\": {\"C\": 1}, \"89\": {\"C\": 1}, \"90\": {\"C\": 1}, \"91\": {\"C\": 1}, \"92\": {\"N\": 1}, \"93\": {\"N\": 1}, \"94\": {\"N\": 1}, \"95\": {\"N\": 1}, \"96\": {\"N\": 1}, \"97\": {\"N\": 1}, \"98\": {\"N\": 1}, \"99\": {\"N\": 1}, \"100\": {\"O\": 1}, \"101\": {\"O\": 1}, \"102\": {\"O\": 1}, \"103\": {\"O\": 1}}" energy=-710.3238525390625 free_energy=-710.3238525390625 stress="0.0023575734812766314 0.00016764439351391047 6.816993118263781e-05 0.00016764439351391047 0.0004595152859110385 -0.0020614478271454573 6.816993118263781e-05 -0.0020614478271454573 0.0010321999434381723" pbc="T T T"
Cu       3.26041353       7.40764129       2.70491959        0      -0.22786117      -0.28085524       0.14664388
Cu       7.71050869       3.57588158      10.83296433        1      -0.22473410       0.27628672      -0.14878939
Cu       5.64186789      -0.93885071      10.83329591        2       0.19531003       0.28747022      -0.15233222
Cu       1.19105719       2.89200762       2.70435938        3       0.20285326      -0.28809646       0.14872304
H        4.50600909       6.06229930       0.23249191        4      -0.03509188       0.01267236      -0.02053434
H        0.05510642       4.91961809      13.30154768        5      -0.07235466      -0.01077868       0.05602730
H        4.39322883       0.40594195      13.30134266        6       0.06825283      -0.00300400       0.06639683
H        8.84504992       1.54727829       0.23318522        7       0.02296066       0.01445466      -0.00574818
H        6.68535370       2.43160957      13.22462793        8       0.02460680       0.01879182       0.02129953
H        2.23474965       8.55231633       0.31209593        9       0.01129260      -0.04417980      -0.05925982
H        2.21400507       4.03599277       0.31147842       10      -0.02083474      -0.02729119      -0.04010169
H        6.66661251      -2.08259891      13.22432532       11      -0.02366363       0.02693816       0.03514215
H        8.58743584       5.18493547       1.35461676       12      -0.12831065       0.00495454      -0.05860020
H        4.13674215       5.79888639      12.18324589       13      -0.13128111      -0.01606662       0.06281856
H        0.31332501       1.28396227      12.18264617       14       0.14559108      -0.02341670       0.05926548
H        4.76370701       0.66980025       1.35347220       15       0.14767447       0.01603253      -0.06120516
H        8.19649694       6.44939701       3.45710346       16      -0.12181269       0.03579547       0.03639802
H        3.74601477       4.53447042      10.08051407       17      -0.13019465      -0.03477241      -0.03659584
H        0.70384647       0.01929555      10.08184700       18       0.11603709      -0.03297397      -0.04390651
H        5.15529691       1.93364024       3.45627963       19       0.08682048       0.03430977       0.06592548
H        8.23086329      -0.28643415       3.60857118       20      -0.10189816      -0.02478077       0.04655710
H        3.77991662       2.24021846       9.92703359       21      -0.07905924       0.01929407       0.01596278
H        0.66969825       6.75514404       9.92745541       22       0.07919516       0.02153409       0.00305922
H        5.12008216       4.22836513       3.60932283       23       0.07831860      -0.02301303      -0.02170774
H        0.86182432       0.79470529       5.19894258       24      -0.06595568       0.04367121       0.04542337
H        5.31057052       1.15915170       8.33960725       25      -0.06911989      -0.04325819      -0.06746320
H        8.03977067       5.67339523       8.33877151       26       0.03524485      -0.05651927      -0.05701885
H        3.58915724       5.31177880       5.19671161       27       0.09007736       0.02339672       0.07344219
H        0.30230933       0.89432736       7.61889758       28       0.00443169      -0.03896853       0.03360504
H        4.75168811       1.05998717       5.91737071       29       0.02791987       0.01627232      -0.05701265
H        8.59844552       5.57494193       5.91682331       30      -0.01983535       0.02214366      -0.05309784
H        4.14719332       5.40968978       7.61875972       31       0.00812320      -0.04098666       0.02241060
H        7.13578116      -0.20982099       8.46408690       32      -0.07083660       0.01858412      -0.01508884
H        2.68519699       2.16455833       5.07138216       33      -0.05303925      -0.02236007       0.09187888
H        1.76372033       6.67891128       5.07273240       34       0.07169920      -0.02102975       0.00170110
H        6.21441820       4.30429648       8.46444703       35       0.05708273       0.02015872      -0.06290556
H        5.58294653       7.72626471       6.87255087       36       0.00270718       0.03317308       0.01894378
H        1.13223988       3.25781301       6.66442673       37       0.05403844      -0.05474476      -0.00999961
H        3.31819058      -1.25722905       6.66484671       38      -0.00631751      -0.03523963      -0.02910998
H        7.76659915       3.21236030       6.87238922       39       0.03126830       0.01360157       0.03508168
C        2.48577123       0.07925526       2.66084909       40       0.02769913       0.30572405       0.06987695
C        6.93463308       1.87408401      10.87708905       41      -0.00612890      -0.40449715      -0.06909578
C        6.41515010       6.39056227      10.87611014       42       0.00279037      -0.38799229      -0.06841373
C        1.96626384       4.59154093       2.65705414       43       0.06029044       0.53623998       0.07851012
C        5.34944963       6.13909601       0.92049224       44       0.05676040      -0.00211007      -0.12239970
C        0.89905379       4.84302422      12.61679370       45       0.08421296      -0.01557321       0.03289077
C        3.54858644       0.32988659      12.61746204       46       0.01877707      -0.08850180      -0.01674750
C        8.00056993       1.62415646       0.92079549       47       0.01492774       0.03860047      -0.09613465
C        6.57316505       5.53772623       0.62179569       48      -0.07534912       0.03331222       0.07969772
C        2.12148136       5.44488001      12.91404186       49      -0.02369648       0.02349519       0.04395671
C        2.32724446       0.92980214      12.91354047       50       0.00545698       0.05193916       0.07297873
C        6.77837456       1.02346070       0.62223728       51       0.03488317      -0.01558664      -0.00600421
C        7.62112100       5.65864795       1.53372671       52      -0.07259510       0.03175453      -0.12702550
C        3.17122213       5.32272243      12.00591137       53      -0.10440638      -0.06862710      -0.00668451
C        1.27940026       0.80772732      12.00512555       54       0.01917688      -0.02126020       0.04277216
C        5.73038504       1.14468004       1.53144048       55       0.02085071       0.03802361      -0.02646965
C        7.41196996       6.37315087       2.70752188       56      -0.10559526       0.05208325       0.03471769
C        2.95965642       4.60976934      10.82862884       57       0.01573097       0.00209030       0.03310635
C        1.48989038       0.09496174      10.82974606       58      -0.08319219       0.00213190      -0.02148062
C        5.93962524       1.85782265       2.70838334       59      -0.00835543      -0.01395965      -0.07606870
C        6.15416329       6.95441843       2.93984013       60       0.16342932       0.59267402       0.62836856
C        1.70384222       4.02863054      10.59480700       61       0.18467301      -0.54436487      -0.59188777
C        2.74236311      -0.48575537      10.59504956       62       0.04760522      -0.59555858      -0.53816998
C        7.19236109       2.44039847       2.93919725       63       0.00343105       0.62624025       0.65967691
C        5.78356713       7.63239926       4.20783804       64       0.15345344      -0.45045015      -0.76515836
C        1.33256765       3.35463379       9.32719375       65       0.18253180       0.38187474       0.74699634
C        3.11548619      -1.16044224       9.32950701       66      -0.02306780       0.34974614       0.62902868
C        7.56604822       3.11738594       4.20717845       67      -0.12212078      -0.43341434      -0.75570571
C        6.79111619      -0.86097729       5.13001221       68      -0.13808110      -0.08711797       0.07901213
C        2.34015013       2.81503901       8.40684181       69      -0.09324180       0.08223639      -0.08227174
C        2.10984601       7.32999017       8.40591344       70       0.05567999       0.06830116      -0.02949041
C        6.56087241       3.65393727       5.12990127       71       0.03282191      -0.05286774       0.05507519
C        7.98816887      -0.28404956       4.66988171       72       0.11661091       0.00421226      -0.08117621
C        3.53795299       2.23680376       8.86768569       73       0.04456370       0.03127046      -0.01892138
C        0.91039499       6.75213427       8.86748227       74      -0.02450103       0.02840338      -0.06460582
C        5.36097434       4.23080538       4.66869628       75      -0.00098136      -0.04145259       0.03907744
C        8.84727329       0.34041053       5.56625225       76      -0.06831768      -0.05783752       0.09833668
C        4.39546770       1.61339771       7.96922262       77      -0.04080139       0.03655078      -0.04054039
C        0.05205612       6.12803062       7.96844697       78       0.11795875       0.07994495      -0.00992118
C        4.50377033       4.85432748       5.56694705       79       0.01414892      -0.01328680       0.00710642
C        8.53213193       0.39179742       6.92632601       80      -0.05422599       0.05144782       0.04971775
C        4.08017712       1.56085374       6.60921023       81       0.01062313      -0.05957694       0.01625853
C        0.36850968       6.07596140       6.60921956       82       0.03547090      -0.03897532      -0.03227770
C        4.81949135       4.90767899       6.92584314       83      -0.00159787       0.05885588       0.08073577
C        7.36403305      -0.21195464       7.39732057       84       0.10735944       0.01485844      -0.08625579
C        2.91472359       2.16497671       6.14049306       85       0.01484297       0.01811394      -0.07101214
C        1.53530353       6.68046580       6.13910736       86      -0.04658423       0.00729870       0.08597034
C        5.98523698       4.30255497       7.39624384       87      -0.03717800       0.00046398      -0.00288159
C        6.49156302      -0.82987716       6.50680109       88       0.04794981       0.00010595       0.03871939
C        2.04280026       2.78376269       7.02973170       89      -0.03677077       0.03761014      -0.01490907
C        2.40937769       7.29833475       7.02921419       90      -0.07677042      -0.00641688      -0.02307289
C        6.85900657       3.68499206       6.50667835       91      -0.07797226       0.01472919       0.01387084
N        2.04636194       1.16979353       2.68003875       92      -0.20925006       0.01998946      -0.09067109
N        6.49782858       0.78104243      10.85988398       93      -0.16273904       0.09895618       0.09030692
N        6.85438970       5.29906582      10.85658983       94       0.18511246       0.04097772       0.09164034
N        2.40530075       5.68510819       2.67863820       95       0.12111795      -0.19783324      -0.09632371
N        5.13064529       6.82973362       2.04994125       96       0.17649445      -0.43843693      -0.07576436
N        0.68364360       4.15423341      11.48572093       97       0.04226622       0.40557879       0.11234373
N        3.76641079      -0.36074806      11.48703675       98      -0.15309045       0.42548099       0.07013118
N        8.21713074       2.31526305       2.05031501       99      -0.13855731      -0.43125939      -0.10188234
O        4.56222999       7.72794034       4.48178511      100      -0.27541083       0.25574586       0.14438869
O        0.11185208       3.25636325       9.05447911      101      -0.31474888      -0.24450535      -0.15931413
O        4.33901373      -1.25986105       9.05381663      102       0.12377499      -0.21458218      -0.07299171
O        8.78803229       3.21393598       4.47983850      103       0.25254571       0.24178278       0.13023357
104
Lattice="8.9012907 0.0 0.0 -8.01130184340637e-05 9.029838569644618 0.0 7.905295117346097e-05 -2.5617176079715955 13.538248600820383" Properties=species:S:1:pos:R:3:spacegroup_kinds:I:1:forces:R:3 spacegroup="P 1" unit_cell=conventional occupancy="_JSON {\"0\": {\"Cu\": 1}, \"1\": {\"Cu\": 1}, \"2\": {\"Cu\": 1}, \"3\": {\"Cu\": 1}, \"4\": {\"H\": 1}, \"5\": {\"H\": 1}, \"6\": {\"H\": 1}, \"7\": {\"H\": 1}, \"8\": {\"H\": 1}, \"9\": {\"H\": 1}, \"10\": {\"H\": 1}, \"11\": {\"H\": 1}, \"12\": {\"H\": 1}, \"13\": {\"H\": 1}, \"14\": {\"H\": 1}, \"15\": {\"H\": 1}, \"16\": {\"H\": 1}, \"17\": {\"H\": 1}, \"18\": {\"H\": 1}, \"19\": {\"H\": 1}, \"20\": {\"H\": 1}, \"21\": {\"H\": 1}, \"22\": {\"H\": 1}, \"23\": {\"H\": 1}, \"24\": {\"H\": 1}, \"25\": {\"H\": 1}, \"26\": {\"H\": 1}, \"27\": {\"H\": 1}, \"28\": {\"H\": 1}, \"29\": {\"H\": 1}, \"30\": {\"H\": 1}, \"31\": {\"H\": 1}, \"32\": {\"H\": 1}, \"33\": {\"H\": 1}, \"34\": {\"H\": 1}, \"35\": {\"H\": 1}, \"36\": {\"H\": 1}, \"37\": {\"H\": 1}, \"38\": {\"H\": 1}, \"39\": {\"H\": 1}, \"40\": {\"C\": 1}, \"41\": {\"C\": 1}, \"42\": {\"C\": 1}, \"43\": {\"C\": 1}, \"44\": {\"C\": 1}, \"45\": {\"C\": 1}, \"46\": {\"C\": 1}, \"47\": {\"C\": 1}, \"48\": {\"C\": 1}, \"49\": {\"C\": 1}, \"50\": {\"C\": 1}, \"51\": {\"C\": 1}, \"52\": {\"C\": 1}, \"53\": {\"C\": 1}, \"54\": {\"C\": 1}, \"55\": {\"C\": 1}, \"56\": {\"C\": 1}, \"57\": {\"C\": 1}, \"58\": {\"C\": 1}, \"59\": {\"C\": 1}, \"60\": {\"C\": 1}, \"61\": {\"C\": 1}, \"62\": {\"C\": 1}, \"63\": {\"C\": 1}, \"64\": {\"C\": 1}, \"65\": {\"C\": 1}, \"66\": {\"C\": 1}, \"67\": {\"C\": 1}, \"68\": {\"C\": 1}, \"69\": {\"C\": 1}, \"70\": {\"C\": 1}, \"71\": {\"C\": 1}, \"72\": {\"C\": 1}, \"73\": {\"C\": 1}, \"74\": {\"C\": 1}, \"75\": {\"C\": 1}, \"76\": {\"C\": 1}, \"77\": {\"C\": 1}, \"78\": {\"C\": 1}, \"79\": {\"C\": 1}, \"80\": {\"C\": 1}, \"81\": {\"C\": 1}, \"82\": {\"C\": 1}, \"83\": {\"C\": 1}, \"84\": {\"C\": 1}, \"85\": {\"C\": 1}, \"86\": {\"C\": 1}, \"87\": {\"C\": 1}, \"88\": {\"C\": 1}, \"89\": {\"C\": 1}, \"90\": {\"C\": 1}, \"91\": {\"C\": 1}, \"92\": {\"N\": 1}, \"93\": {\"N\": 1}, \"94\": {\"N\": 1}, \"95\": {\"N\": 1}, \"96\": {\"N\": 1}, \"97\": {\"N\": 1}, \"98\": {\"N\": 1}, \"99\": {\"N\": 1}, \"100\": {\"O\": 1}, \"101\": {\"O\": 1}, \"102\": {\"O\": 1}, \"103\": {\"O\": 1}}" energy=-710.3668823242188 free_energy=-710.3668823242188 stress="0.0028053526766598225 0.00018661409558262676 0.00013121770462021232 0.00018661409558262676 -0.0007495649624615908 -0.0020514007192105055 0.00013121770462021232 -0.0020514007192105055 0.0011668832739815116" pbc="T T T"
Cu       3.25752303       7.40533522       2.70646375        0      -0.20930043      -0.24103150       0.15375733
Cu       7.70759363       3.57883750      10.83051087        1      -0.21267661       0.22483152      -0.16053638
Cu       5.64469173      -0.93604891      10.83225286        2       0.18077120       0.24227253      -0.16465396
Cu       1.19400166       2.88913138       2.70583205        3       0.18715754      -0.23688537       0.16282615
H        4.50475574       6.06163664       0.23050968        4       0.00241867       0.01341712       0.00928803
H        0.05329911       4.92040106      13.30143572        5      -0.02443422      -0.01502737       0.02688023
H        4.39403076       0.40579178      13.30177522        6       0.02206098      -0.00973013       0.01862763
H        8.84389230       1.54875428       0.23117330        7       0.06265649       0.01492359      -0.03228815
H        6.68493763       2.43103800      13.22396576        8       0.01948876       0.03815570       0.05041245
H        2.23382483       8.55121619       0.31095482        9       0.02439950      -0.01273794      -0.01914786
H        2.21225479       4.03634157       0.30930036       10      -0.02641029       0.01501261       0.03481421
H        6.66468394      -2.08181707      13.22385766       11      -0.01918882       0.03167072       0.03832527
H        8.58478406       5.18624491       1.35477336       12      -0.12456878       0.00040126      -0.06505366
H        4.13401030       5.79876837      12.18322056       13      -0.14398468      -0.02734454       0.05666922
H        0.31500794       1.28315733      12.18264584       14       0.09634195      -0.00071451       0.06592599
H        4.76604278       0.67001723       1.35145022       15       0.09333111      -0.00761081      -0.07123137
H        8.19384898       6.44998706       3.45783518       16      -0.11174127       0.02767902       0.02002709
H        3.74384986       4.53230918      10.07972324       17      -0.07678068      -0.02161832      -0.06599675
H        0.70546408       0.01697241      10.07986650       18       0.03705275      -0.02066947      -0.08460170
H        5.15643893       1.93489458       3.45771570       19       0.09494445       0.02155931       0.03087583
H        8.22820184      -0.28730134       3.60777894       20      -0.07224837      -0.01976411      -0.01028578
H        3.77757276       2.24081272       9.92675396       21      -0.07002012       0.01583854      -0.00788459
H        0.67017304       6.75599388       9.92680618       22       0.07595299       0.02220688      -0.03754362
H        5.12187005       4.22913305       3.60734299       23       0.06387126      -0.02105845      -0.01294051
H        0.85961898       0.79554276       5.19856046       24      -0.08397844       0.03312185       0.06070492
H        5.30760699       1.15774054       8.33845970       25      -0.08599799      -0.02817969      -0.07799342
H        8.04003716       5.67273603       8.33619130       26       0.05287094      -0.04210282      -0.05409132
H        3.59067242       5.31354628       5.19813646       27       0.04270130       0.04210479       0.04678190
H        0.30068617       0.89421352       7.61872052       28       0.01455551      -0.02092266       0.04102035
H        4.75102354       1.06038352       5.91479848       29       0.01409464       0.02237108      -0.02841637
H        8.59643831       5.57657781       5.91438974       30      -0.00440760       0.02051455      -0.03854182
H        4.14724894       5.40905642       7.61758358       31      -0.04073188       0.00233774       0.06721819
H        7.13303964      -0.20816848       8.46271900       32      -0.05571410       0.01790348      -0.04491112
H        2.68451396       2.16341382       5.07100426       33      -0.05228843      -0.01921877       0.07477213
H        1.76558973       6.67826260       5.07168371       34       0.04758877      -0.01968778       0.05666541
H        6.21471610       4.30571789       8.46179293       35       0.05692722       0.02163034      -0.02642344
H        5.58170960       7.72760970       6.87101120       36       0.00327939       0.03142254       0.03280265
H        1.13310179       3.25735915       6.66294875       37      -0.00282520      -0.02858907      -0.03984571
H        3.31790869      -1.25768530       6.66298585       38      -0.02448088      -0.04592875      -0.02964310
H        7.76584324       3.21329116       6.87221566       39      -0.01278690       0.03600105       0.02657872
C        2.48513925       0.08223588       2.66138232       40       0.16033982      -0.01965013       0.06365196
C        6.93357421       1.87122753      10.87479966       41       0.12066241      -0.09180567      -0.06021005
C        6.41463406       6.38801695      10.87357242       42      -0.09531202      -0.14363274      -0.05872089
C        1.96846017       4.59402266       2.65678300       43      -0.08161515       0.19346973       0.07096563
C        5.35011426       6.13831605       0.91856594       44      -0.10547867       0.06328958      -0.07739781
C        0.90008097       4.84357469      12.61740229       45      -0.03631189      -0.01574650       0.05282937
C        3.54821402       0.32971629      12.61604593       46       0.00177789      -0.00837234       0.09558347
C        8.00070572       1.62485200       0.91791695       47      -0.05147895       0.04207543      -0.00785378
C        6.57102510       5.53841768       0.62151392       48       0.04113266      -0.05392059      -0.03254018
C        2.11998917       5.44612727      12.91349007       49       0.02083825       0.00302383       0.03628104
C        2.32634436       0.93140555      12.91393111       50       0.05330312      -0.03852383      -0.03322208
C        6.77827676       1.02458673       0.62163679       51       0.04556999      -0.04044597      -0.08249170
C        7.61843311       5.66017582       1.53168228       52      -0.04375507       0.06052031      -0.02685788
C        3.16862344       5.32112776      12.00516984       53      -0.02615169      -0.01549896      -0.00825159
C        1.27940894       0.80703648      12.00512828       54       0.03170897      -0.03507221      -0.00210738
C        5.73037347       1.14549174       1.52943451       55       0.04149577       0.06779519       0.03247713
C        7.40974393       6.37510090       2.70726960       56       0.02810776      -0.00343840       0.00417010
C        2.95950960       4.61040045      10.82712463       57      -0.06404440      -0.04668929       0.05155855
C        1.48739775       0.09502859      10.82807230       58       0.05430884      -0.03396812       0.04447863
C        5.93895777       1.85772604       2.70671983       59      -0.00854304       0.00605679      -0.02327609
C        6.15680899       6.95740266       2.94216364       60      -0.06644607       0.52490562       0.40723664
C        1.70325676       4.02759465      10.59202391       61       0.19415852      -0.43191552      -0.42087802
C        2.74109301      -0.48747522      10.59234382       62       0.01329863      -0.46316150      -0.38335371
C        7.19303815       2.43921392       2.93980540       63      -0.07099658       0.58260965       0.59463859
C        5.78526573       7.63196957       4.20503867       64      -0.14063740      -0.37769008      -0.58804762
C        1.33391954       3.35758199       9.32968958       65      -0.13110223       0.25309092       0.50140512
C        3.11475564      -1.15746582       9.33228296       66       0.15907803       0.19246610       0.36056042
C        7.56328449       3.11581847       4.20459851       67       0.26088864      -0.36603427      -0.59268653
C        6.78889164      -0.86274247       5.12935825       68      -0.00615020      -0.02871113       0.03765240
C        2.33758407       2.81713935       8.40536865       69       0.02454260       0.05117606      -0.03055025
C        2.10907247       7.33086301       8.40492795       70       0.10544273       0.11372198      -0.01914213
C        6.56142623       3.65270034       5.12917015       71      -0.07846536      -0.01875669       0.00855239
C        7.98818996      -0.28486620       4.66759669       72       0.03093737      -0.01933482       0.07948589
C        3.53801816       2.23771987       8.86625009       73      -0.07116409       0.08993667      -0.01764612
C        0.90887639       6.75415885       8.86511143       74       0.02081929       0.04335838       0.02863699
C        5.35951254       4.23042931       4.66758706       75       0.05220249      -0.05359417       0.07240480
C        8.84534414       0.33967950       5.56725505       76      -0.03028981      -0.04036915      -0.03421579
C        4.39340177       1.61498627       7.96693169       77       0.04616240      -0.01869807       0.04311675
C        0.05244367       6.12972515       7.96713020       78       0.03556558       0.01732774      -0.05801050
C        4.50321372       4.85458591       5.56678773       79       0.05635415      -0.03037746      -0.01088104
C        8.53028724       0.39347935       6.92595974       80      -0.02372482       0.03909536       0.05619112
C        4.07953380       1.56057282       6.60854777       81       0.01210418      -0.05567134      -0.07677643
C        0.36814829       6.07553900       6.60739723       82      -0.00927940      -0.03171486      -0.00346546
C        4.81847739       4.90926562       6.92572564       83       0.02126992       0.02168347       0.02563730
C        7.36445066      -0.21126380       7.39555675       84       0.01013517      -0.01079521      -0.01571861
C        2.91527839       2.16535909       6.13929080       85      -0.02879184       0.02464692      -0.04646766
C        1.53358616       6.68109566       6.13927188       86      -0.00428566      -0.01140207      -0.05961543
C        5.98300158       4.30404782       7.39526661       87       0.00826326      -0.02191816      -0.02680230
C        6.49109174      -0.82977750       6.50599334       88       0.03871117      -0.00597368       0.02617059
C        2.04169979       2.78404303       7.02802385       89       0.01659781       0.02341688       0.01908435
C        2.40814088       7.29812909       7.02704775       90      -0.02391870       0.04305024       0.08254944
C        6.85662589       3.68578096       6.50571474       91       0.00327339      -0.02276045       0.04214208
N        2.04474083       1.16849522       2.67908124       92      -0.31796789       0.29728007      -0.08575869
N        6.49563874       0.78228247      10.86122981       93      -0.26310703      -0.15927073       0.08397812
N        6.85532952       5.29995075      10.85653472       94       0.25922886      -0.15580170       0.08573139
N        2.40719568       5.68358714       2.67618340       95       0.23416454       0.09449007      -0.08822529
N        5.13074593       6.82746740       2.04822885       96       0.23056012      -0.36970079       0.02885440
N        0.68449596       4.15698261      11.48660410       97       0.02308363       0.33123514       0.01858446
N        3.76406594      -0.35782094      11.48664599       98      -0.10522947       0.34218729      -0.01225466
N        8.21516138       2.31263302       2.04984394       99      -0.03317535      -0.39496326      -0.12631498
O        4.55957993       7.72998559       4.48245523      100      -0.03730151       0.21326113       0.03774446
O        0.10894547       3.25353490       9.05192703      101      -0.05927400      -0.18809900      -0.03534100
O        4.34148969      -1.26248489       9.05168803      102      -0.10290259      -0.16294897       0.03331976
O        8.79101593       3.21679895       4.48060142      103      -0.07708645       0.19470187       0.01646594
104