68
Lattice="7.96029041 0.0 0.0 0.17123688976967302 7.958394412861913 0.0 0.3997856690893823 0.39137815102656315 11.1182334776425" Properties=species:S:1:pos:R:3:spacegroup_kinds:I:1:forces:R:3 spacegroup="P 1" unit_cell=conventional occupancy="_JSON {\"0\": {\"Cu\": 1}, \"1\": {\"Cu\": 1}, \"2\": {\"H\": 1}, \"3\": {\"H\": 1}, \"4\": {\"H\": 1}, \"5\": {\"H\": 1}, \"6\": {\"H\": 1}, \"7\": {\"H\": 1}, \"8\": {\"H\": 1}, \"9\": {\"H\": 1}, \"10\": {\"H\": 1}, \"11\": {\"H\": 1}, \"12\": {\"H\": 1}, \"13\": {\"H\": 1}, \"14\": {\"H\": 1}, \"15\": {\"H\": 1}, \"16\": {\"H\": 1}, \"17\": {\"H\": 1}, \"18\": {\"H\": 1}, \"19\": {\"H\": 1}, \"20\": {\"H\": 1}, \"21\": {\"H\": 1}, \"22\": {\"H\": 1}, \"23\": {\"H\": 1}, \"24\": {\"H\": 1}, \"25\": {\"H\": 1}, \"26\": {\"C\": 1}, \"27\": {\"C\": 1}, \"28\": {\"C\": 1}, \"29\": {\"C\": 1}, \"30\": {\"C\": 1}, \"31\": {\"C\": 1}, \"32\": {\"C\": 1}, \"33\": {\"C\": 1}, \"34\": {\"C\": 1}, \"35\": {\"C\": 1}, \"36\": {\"C\": 1}, \"37\": {\"C\": 1}, \"38\": {\"C\": 1}, \"39\": {\"C\": 1}, \"40\": {\"C\": 1}, \"41\": {\"C\": 1}, \"42\": {\"C\": 1}, \"43\": {\"C\": 1}, \"44\": {\"C\": 1}, \"45\": {\"C\": 1}, \"46\": {\"C\": 1}, \"47\": {\"C\": 1}, \"48\": {\"C\": 1}, \"49\": {\"C\": 1}, \"50\": {\"C\": 1}, \"51\": {\"C\": 1}, \"52\": {\"C\": 1}, \"53\": {\"C\": 1}, \"54\": {\"C\": 1}, \"55\": {\"C\": 1}, \"56\": {\"S\": 1}, \"57\": {\"S\": 1}, \"58\": {\"N\": 1}, \"59\": {\"N\": 1}, \"60\": {\"N\": 1}, \"61\": {\"N\": 1}, \"62\": {\"N\": 1}, \"63\": {\"N\": 1}, \"64\": {\"N\": 1}, \"65\": {\"N\": 1}, \"66\": {\"O\": 1}, \"67\": {\"O\": 1}}" energy=747.6275634765625 free_energy=747.6275634765625 stress="-4.234882831573486 1.8301494121551514 0.9501980543136597 1.8301494121551514 -1.4250367879867554 -1.3080915212631226 0.9501980543136597 -1.3080915212631226 -2.1230685710906982" pbc="T T T"
Cu       0.46336284       6.94757518      11.23005729        0      22.35867119     -31.71517181      31.26416397
Cu       8.16169014       0.04719440       4.05269920        1      33.20591736     111.11573792      76.61491394
H        3.85626154       5.41917677       0.38714298        2     -24.69434166     -37.12708664     -62.97262955
H        5.94834919       3.59158356       5.99413932        3       0.84318542     -35.49788284    -101.42350769
H        2.10356131       5.53789564       2.03240786        4      21.59317017     -17.56010818     -30.33061409
H        4.92201166       2.41612773       7.52884287        5     -17.63498116     -47.70185852      37.24318695
H        2.61873995       4.62841064      10.08316351        6      -6.61311913      -1.65993524       4.97092676
H        3.41812575       0.83119716       5.26289561        7    -113.21432495     175.16094971    -118.55151367
H        2.10178090       2.28539083       9.60252537        8      -4.34299994      -2.92080879       6.17057323
H        2.00861087       3.57426616       4.07207289        9      12.49958897       3.81108141      -1.43662953
H        4.73576686       5.06238590       8.59825532       10      33.12784576      41.65706635      33.02387238
H        3.85844397       5.87788381       2.99522846       11     -44.66666031     -14.94542217     -44.96378326
H        1.35603546       3.21937644       8.15480213       12      -4.42509604       5.97361946       1.79939198
H        3.93290545      -0.36006725       1.95285164       13      41.04742432     -32.17604828     -38.86975861
H        2.60471824       5.04960840       6.81880074       14     -14.78633499       2.93304539      -1.69792569
H        4.55166290       1.45501891       0.52886191       15     -22.73456192       3.40633678      -5.80951977
H       -0.33352841       4.60340091       7.23584116       16      14.15954781      -5.29536819      32.32405472
H        6.20441710      -0.18447744       0.69487210       17       8.05639458     -12.90749741      16.28886032
H        4.17708835       5.41923659       7.41913053       18     -40.91233063       5.19402504      50.15153885
H        6.15853444       3.03689911       1.59892354       19     -15.58153725      -5.55417919     -14.93682098
H        4.71132783       7.21803976       7.12144215       20       2.91248083     -10.18455315      51.13491058
H        7.14012886       5.90370069       0.89887036       21     -20.11248398      21.43158531      56.90104294
H        6.21687218       1.63761202       9.52103323       22       0.19878888      -3.75855589      -0.28008187
H        0.06977645       4.52488642       3.75580099       23     -73.04052734      57.47865295       4.26648283
H        2.57550320       0.43229709       9.94515253       24      -4.86188078       3.31988454       6.56355190
H        1.33463932       3.49496937       6.05748280       25     -11.31612492      22.76335335       8.84487534
C        8.47383165       0.74542261       7.70839933       26     -30.01386642     -27.37499619     -34.37931824
C        0.45955312       7.63626854       1.37842341       27      66.78752899      -5.74067020     -20.80649185
C        5.86271227       6.61214568      11.01199071       28    -174.91552734     128.30905151      99.38862610
C        5.58835425       5.72263106       3.69398008       29     112.96633911    -461.79162598      58.44650269
C        4.69398348       4.82331082       9.58384005       30      33.76465607     -72.37866211      -2.60166168
C        6.16518917       4.28383758       4.81570110       31     109.65403748     226.79125977    -197.62841797
C        4.78767156       5.17638090       0.68553788       32      24.79376411      26.26355171      30.18130684
C        5.24095558       5.12319508       6.35909249       33     -24.51581955     222.86593628    -110.75993347
C        2.36522231       3.92032360       0.55794462       34      15.55861664      47.27191925      41.97396088
C        4.84834865       3.39267365       5.89990659       35    -101.52389526    -123.91371918    1433.48474121
C        2.59240594       3.67604753      11.17551921       36     -11.55360603     -36.47795105     -44.72943878
C        4.76680372       3.31945708       5.41554153       37     -73.27934265    -145.00167847   -1288.63867188
C        4.05894186       3.01118017       8.83589201       38     -12.17609882     -37.13359833      -3.27846003
C        2.79834387       3.35023683       4.75723061       39      30.51044273     -35.13787460      23.01637268
C        5.02670850       4.95651569       9.87600488       40     -42.46722412     107.11190796       3.21403694
C        4.77312614       5.18772809       3.45128400       41    -119.64257050      29.55066299       6.07547951
C        0.47078077       4.79448704       7.82395028       42      -7.00375652       3.90791154     -18.65556145
C        4.27630635       0.93936933       1.82212745       43       1.61181021      60.00387573    -163.23922729
C        0.81660763       6.94768333       8.71939593       44     120.63895416    -130.82144165     189.49932861
C        5.22135374       0.91472796       2.67582208       45    -138.71282959    -140.24832153     199.47402954
C        3.50513758       6.26251588       7.71862915       46     -12.22003651     -77.32043457     -62.46873474
C        7.49675257       2.37436544       2.64149230       47     -47.09764862      -5.16765594     -33.24824905
C        3.62160155       6.92972826       8.08639745       48      17.67808151      81.55577087      55.02165985
C        7.62299675       2.54901454       1.24563407       49       4.87623453      16.08031845      11.43666649
C        4.69823269       8.36375381       7.79261474       50      -9.38432312       0.10795777      15.59168625
C        6.65095632       4.06323922       2.11081445       51      23.90572739     -35.58384323     -39.77092743
C        5.09739650       0.62187677       8.93335253       52       0.44018793       5.98049021      -5.19010782
C       -0.59698984       5.28799364       3.33595298       53    -108.69696808     103.97949982      33.03894043
C        2.89698913       0.46700650       9.17558384       54     -33.88179016     -13.22875786      99.30558777
C       -0.39869070       2.73365212       3.34179754       55     -62.45504761      45.72206116      69.22584534
S        8.60578538       1.17857464       8.65431686       56      21.43009758      31.26373482      57.27462769
S        2.63933484       8.50136701       3.97219504       57    -486.57623291     139.49053955     -69.34307861
N        8.90547577       1.05255119       6.74130684       58      62.65008545     -26.39464760    -116.93027496
N        0.54810697       8.51065987       1.96325328       59      23.90223694      37.46426392      41.99545670
N        6.94700489       6.61675194       8.50367736       60       9.54713058      -5.14297915     -30.22860527
N        5.02261992       7.70635149       4.16006329       61   -7864.28125000    3002.52734375    5194.94042969
N        0.54534348       7.21037708       8.29790066       62     -84.29388428     103.48738098    -136.07827759
N        5.14544625      -0.45942308       4.03464026       63    8579.24804688   -3075.21142578   -5128.48925781
N        3.25599182       8.51094953       8.50371311       64      10.03178024      31.09836769    -148.13809204
N        7.96547799       1.34060395       2.90354275       65     122.24015045     -33.25888062     -15.53814030
O        6.19728319       6.39641592      10.79528911       66     117.07503510    -150.08790588     -66.94174957
O        7.71098342       7.36479180       6.14030712       67     164.31652832      -8.65729427      78.20778656
68
Lattice="7.96029041 0.0 0.0 0.17123688976967302 7.958394412861913 0.0 0.3997856690893823 0.39137815102656315 11.1182334776425" Properties=species:S:1:pos:R:3:spacegroup_kinds:I:1:forces:R:3 spacegroup="P 1" unit_cell=conventional occupancy="_JSON {\"0\": {\"Cu\": 1}, \"1\": {\"Cu\": 1}, \"2\": {\"H\": 1}, \"3\": {\"H\": 1}, \"4\": {\"H\": 1}, \"5\": {\"H\": 1}, \"6\": {\"H\": 1}, \"7\": {\"H\": 1}, \"8\": {\"H\": 1}, \"9\": {\"H\": 1}, \"10\": {\"H\": 1}, \"11\": {\"H\": 1}, \"12\": {\"H\": 1}, \"13\": {\"H\": 1}, \"14\": {\"H\": 1}, \"15\": {\"H\": 1}, \"16\": {\"H\": 1}, \"17\": {\"H\": 1}, \"18\": {\"H\": 1}, \"19\": {\"H\": 1}, \"20\": {\"H\": 1}, \"21\": {\"H\": 1}, \"22\": {\"H\": 1}, \"23\": {\"H\": 1}, \"24\": {\"H\": 1}, \"25\": {\"H\": 1}, \"26\": {\"C\": 1}, \"27\": {\"C\": 1}, \"28\": {\"C\": 1}, \"29\": {\"C\": 1}, \"30\": {\"C\": 1}, \"31\": {\"C\": 1}, \"32\": {\"C\": 1}, \"33\": {\"C\": 1}, \"34\": {\"C\": 1}, \"35\": {\"C\": 1}, \"36\": {\"C\": 1}, \"37\": {\"C\": 1}, \"38\": {\"C\": 1}, \"39\": {\"C\": 1}, \"40\": {\"C\": 1}, \"41\": {\"C\": 1}, \"42\": {\"C\": 1}, \"43\": {\"C\": 1}, \"44\": {\"C\": 1}, \"45\": {\"C\": 1}, \"46\": {\"C\": 1}, \"47\": {\"C\": 1}, \"48\": {\"C\": 1}, \"49\": {\"C\": 1}, \"50\": {\"C\": 1}, \"51\": {\"C\": 1}, \"52\": {\"C\": 1}, \"53\": {\"C\": 1}, \"54\": {\"C\": 1}, \"55\": {\"C\": 1}, \"56\": {\"S\": 1}, \"57\": {\"S\": 1}, \"58\": {\"N\": 1}, \"59\": {\"N\": 1}, \"60\": {\"N\": 1}, \"61\": {\"N\": 1}, \"62\": {\"N\": 1}, \"63\": {\"N\": 1}, \"64\": {\"N\": 1}, \"65\": {\"N\": 1}, \"66\": {\"O\": 1}, \"67\": {\"O\": 1}}" energy=7158.72998046875 free_energy=7158.72998046875 stress="-17.875471115112305 2.175551176071167 1.7792706489562988 2.175551176071167 -33.82954788208008 -6.655071258544922 1.7792706489562988 -6.655071258544922 -23.288894653320312" pbc="T T T"
Cu       1.45979211       7.04960515      12.17664980        0     101.65212250     -16.28440475    -188.36907959
Cu       9.15990033      -0.05392689       5.05078547        1   -2236.41943359    3943.66601562    1479.67712402
H        4.33808919       6.24221618       1.34349778        2      48.10491943       6.16553688     -25.21829796
H        4.94929106       4.58915926       5.00252402        3    -322.81539917    -163.23507690     610.60125732
H        1.88520228       4.56846824       1.32860599        4     -41.69871140     -48.33494568      49.59044266
H        3.92202173       3.16144793       8.52884287        5     157.15014648     167.83525085      10.76258564
H        1.62155073       3.62870503      11.02370889        6    -107.27449799       1.25691128      84.04821777
H        4.41795361       1.83113124       4.27922252        7      85.16975403     203.19679260    -146.24974060
H        1.10288579       3.28538744      10.57897748        8     -52.07909393      38.82026291      12.92255020
H        2.34491556       2.67341730       3.07736984        9      93.02848053     128.36764526     -16.03572273
H        5.69918045       4.06241475       9.59825532       10       6.46095228      92.59236908    -122.46269226
H        4.85832547       4.92342879       3.24084539       11    -175.69979858     -89.52134705      70.41580963
H        2.35569196       2.69922203       8.72571771       12    -100.88243103     -32.50938416      58.30724335
H        4.90436448      -1.35944909       2.86801409       13      12.08231831      12.63187599     114.05820465
H        3.60471824       4.11601608       7.80188017       14     -10.91498375     112.07350922     113.44732666
H        3.55170576       2.43382278       1.10628578       15      10.00716877      29.81092644      43.53387833
H       -1.33340378       4.98028063       6.23584307       16     136.64184570    -195.09448242      41.83085632
H        7.15111559      -0.77016532       1.35140248       17     -15.79502010     -28.12787247     -22.76671410
H        3.26169499       5.25523769       8.33975932       18      90.29431152     841.66198730     275.21298218
H        7.15853444       2.03689922       0.59892354       19     -13.25463772      25.21216965     -49.04559326
H        5.66474180       7.17453368       6.13869865       20     796.13787842    -216.57032776    -417.72134399
H        8.12857861       5.10858260      -0.10059755       21     -96.92869568     -32.83122253      98.55188751
H        5.21751829       2.63716188       8.52104634       22      45.62571716     107.08370209       7.26357174
H        1.06353209       5.49893617       2.76647058       23     109.24829102      48.03123474      77.78862000
H        3.53264245       1.42662470       8.94517476       24    -255.38696289      70.04098511     392.20983887
H        0.34718855       4.49302114       5.05839910       25      -2.18322706      14.71308994      -6.81308174
C        7.65024412       1.68215573       8.70839933       26      81.99899292    -101.07311249    -193.23832703
C        1.45955306       6.71002458       2.37771316       27     129.99983215    -293.78976440     -48.57849503
C        6.80615241       7.61105288      12.01107960       28    -434.35852051     121.96778870     241.49890137
C        6.58761294       5.51239437       2.69398008       29      57.47768021     141.75325012     -87.43795776
C        5.69398348       5.75951204       8.58384005       30    -211.13069153     457.39971924      73.41204834
C        6.23454230       5.21123328       4.75726769       31     -49.87759399     350.84902954     116.39370728
C        5.77993964       6.17633930      -0.30905294       32      89.85704041      18.40785217     174.37535095
C        4.31069147       4.12689164       7.04254778       33      55.51972580     123.87114716     -31.71218109
C        2.70037201       2.92032360       1.51224866       34      29.55928802      56.15608215      -2.70040035
C        3.84834865       4.37776152       4.90021034       35    -974.04150391    1939.14111328    5543.18212891
C        1.59257176       2.71840140      11.74958967       36      31.70927811     -25.20526123     -85.66103363
C        3.89674811       4.29376396       4.41703099       37    1285.16040039   -1878.86035156   -8837.98242188
C        3.05894198       2.38717831       9.36926656       38    -156.68588257     563.02490234     532.46679688
C        3.75790773       4.32425570       3.75999644       39     -91.23522949     176.01515198    2385.53808594
C        5.47316848       3.95651569      10.37786097       40     -29.60986137     -21.26948166     176.81091309
C        5.76593847       4.27647047       3.02565641       41    -154.71470642    -254.07304382    -157.53968811
C       -0.49823602       3.87352507       6.82818978       42      37.02238464     -26.11873627     -52.30628967
C        3.43887056       1.93936933       2.82122134       43      27.89134598     157.61054993     -99.90250397
C       -0.18339237       5.94829714       7.96100372       44      78.05763245     -40.84530640      28.68469238
C        4.40601251       0.28109524       3.67581994       45      35.96290970     -85.71011353      71.05735016
C        4.50474598       6.79673616       8.58913728       46    4238.34179688  -10258.76855469   -2807.06250000
C        6.49675609       1.37436544       2.39355001       47      35.57884598      23.13176727      55.40843964
C        4.28279611       7.92971324       9.08390836       48    3498.16381836    7339.85449219    6499.24316406
C        6.62365157       2.89218497       2.00383346       49     -51.33326721      58.47457504      50.90274048
C        3.75792310       9.02463497       8.48250381       50   -1137.69482422    1644.54101562   -2222.36962891
C        7.17459678       5.06323922       3.00992405       51     295.70437622     -85.31434631     -10.55599976
C        4.09739650      -0.37807335       7.93335253       52    7811.79589844    -829.66015625    4001.78881836
C       -1.55308440       4.88971072       2.33595608       53     -95.50933075    -179.54956055    -167.26280212
C        3.89698913      -0.44821984       8.24648375       54  -15090.13671875   -1490.95458984   -5141.37304688
C        0.60037542       1.73365331       2.34219510       55    -157.86070251     136.76818848     -85.59872437
S        7.60578538       2.17854883       9.39187523       56     244.42236328      67.08060455     107.15570831
S        1.63933484       7.50158319       4.91034950       57     923.25122070   -5036.02539062   -2948.17138672
N        9.77708021       0.05281405       5.74130684       58     909.21728516     750.12854004    1664.59558105
N        1.54810685       9.51065218       2.95345839       59     -33.14425659     292.32104492    -206.89077759
N        7.87222353       6.33253098       9.50367301       60    -144.24563599      46.32369614      77.12944031
N        5.93605502       8.70635149       5.15998824       61     142.14775085      64.58972931    -308.64196777
N        1.54534348       8.21037624       9.23196475       62    -295.50573730      37.70522690      11.77000618
N        4.71003137      -1.45941712       5.03463734       63     270.90072632    -304.74200439    -521.44812012
N        4.25461030       9.51094899       7.51339714       64      20.20277405    1509.64440918    -261.67947388
N        7.25182508       0.36727441       1.90354275       65      92.40206909     -20.47922897     127.88899994
O        7.17406081       7.36390290      11.78275407       66     450.03198242    -184.08375549    -138.58842468
O        8.12408507       8.00694613       5.14569276       67     -25.56392288      19.10923386     -68.14176941
