86
Lattice="7.4388014 0.0 0.0 -0.00016846054457237338 11.07003958871821 0.0 -9.700238089670627e-05 -0.00019359531501912636 12.795733918167803" Properties=species:S:1:pos:R:3:spacegroup_kinds:I:1:forces:R:3 spacegroup="P 1" unit_cell=conventional occupancy="_JSON {\"0\": {\"Cu\": 1}, \"1\": {\"Cu\": 1}, \"2\": {\"H\": 1}, \"3\": {\"H\": 1}, \"4\": {\"H\": 1}, \"5\": {\"H\": 1}, \"6\": {\"H\": 1}, \"7\": {\"H\": 1}, \"8\": {\"H\": 1}, \"9\": {\"H\": 1}, \"10\": {\"H\": 1}, \"11\": {\"H\": 1}, \"12\": {\"H\": 1}, \"13\": {\"H\": 1}, \"14\": {\"H\": 1}, \"15\": {\"H\": 1}, \"16\": {\"H\": 1}, \"17\": {\"H\": 1}, \"18\": {\"H\": 1}, \"19\": {\"H\": 1}, \"20\": {\"H\": 1}, \"21\": {\"H\": 1}, \"22\": {\"H\": 1}, \"23\": {\"H\": 1}, \"24\": {\"H\": 1}, \"25\": {\"H\": 1}, \"26\": {\"C\": 1}, \"27\": {\"C\": 1}, \"28\": {\"C\": 1}, \"29\": {\"C\": 1}, \"30\": {\"C\": 1}, \"31\": {\"C\": 1}, \"32\": {\"C\": 1}, \"33\": {\"C\": 1}, \"34\": {\"C\": 1}, \"35\": {\"C\": 1}, \"36\": {\"C\": 1}, \"37\": {\"C\": 1}, \"38\": {\"C\": 1}, \"39\": {\"C\": 1}, \"40\": {\"C\": 1}, \"41\": {\"C\": 1}, \"42\": {\"C\": 1}, \"43\": {\"C\": 1}, \"44\": {\"C\": 1}, \"45\": {\"C\": 1}, \"46\": {\"C\": 1}, \"47\": {\"C\": 1}, \"48\": {\"C\": 1}, \"49\": {\"C\": 1}, \"50\": {\"C\": 1}, \"51\": {\"C\": 1}, \"52\": {\"C\": 1}, \"53\": {\"C\": 1}, \"54\": {\"C\": 1}, \"55\": {\"C\": 1}, \"56\": {\"C\": 1}, \"57\": {\"C\": 1}, \"58\": {\"C\": 1}, \"59\": {\"C\": 1}, \"60\": {\"C\": 1}, \"61\": {\"C\": 1}, \"62\": {\"N\": 1}, \"63\": {\"N\": 1}, \"64\": {\"N\": 1}, \"65\": {\"N\": 1}, \"66\": {\"O\": 1}, \"67\": {\"O\": 1}, \"68\": {\"O\": 1}, \"69\": {\"O\": 1}, \"70\": {\"O\": 1}, \"71\": {\"O\": 1}, \"72\": {\"O\": 1}, \"73\": {\"O\": 1}, \"74\": {\"O\": 1}, \"75\": {\"O\": 1}, \"76\": {\"O\": 1}, \"77\": {\"O\": 1}, \"78\": {\"F\": 1}, \"79\": {\"F\": 1}, \"80\": {\"F\": 1}, \"81\": {\"F\": 1}, \"82\": {\"F\": 1}, \"83\": {\"F\": 1}, \"84\": {\"F\": 1}, \"85\": {\"F\": 1}}" energy=-571.1069946289062 free_energy=-571.1069946289062 stress="0.001885574427433312 0.00011917620577150956 -0.000247182440944016 0.00011917620577150956 -0.005929381586611271 1.8946676618725178e-06 -0.000247182440944016 1.8946676618725178e-06 -0.0002672752889338881" pbc="T T T"
Cu       3.71860265       7.62777068       6.39799415        0       0.00905242      -0.02617827       0.00475506
Cu       0.00074682       3.44227176      -0.00065508        1      -0.00248263       0.02395820      -0.00276424
H        1.58995227       7.30994006       8.08080270        2       0.39315060       0.08701137       0.04359215
H        5.84995920       7.31311303       4.71721737        3      -0.45562252       0.09280738      -0.07453392
H        5.31006709       3.75654493      11.11638080        4       0.42599609      -0.07695077      -0.06745879
H        2.12761150       3.75939815       1.68226474        5      -0.42989320      -0.09300788       0.05774218
H        3.04042187       7.03267724       8.77536375        6      -0.09945379       0.01998057      -0.06554876
H        4.39664612       7.02926289       4.01716038        7       0.14458084       0.05320626       0.10829861
H        6.76261635       4.04143312      10.41434437        8      -0.21707334      -0.15196899       0.21507706
H        0.67758528       4.03884164       2.38205074        9       0.08823477       0.00094143      -0.05589243
H        4.17951078       9.71717488       4.38159364       10      -0.00855588       0.11121055      -0.05135136
H        3.25499746       9.71702355       8.41403111       11       0.01105607       0.12879768       0.07914564
H        0.46381655       1.35367583       2.01267490       12      -0.01416114      -0.08519858       0.12748988
H        6.97629511       1.35360546      10.77869149       13       0.02546333      -0.14065057      -0.00215185
H        4.18366808       1.14477721       4.29280678       14      -0.04757459      -0.04508717      -0.01337266
H        3.25850876       1.14494957       8.50218285       15       0.03281411      -0.02975623       0.02760847
H        0.46352918       9.92092258       2.10410182       16      -0.02286506       0.06242118       0.01467846
H        6.97602427       9.92607206      10.69150337       17       0.00237075      -0.01181805      -0.12876415
H        2.68241304       3.04998537       4.49786417       18       0.00876554      -0.05497334      -0.01716051
H        4.75365978       3.04617588       8.30043266       19       0.01820049      -0.07667221       0.05466375
H        6.40511713       8.02158544       1.90246852       20      -0.00880276       0.08527929       0.04420497
H        1.03730139       8.02377860      10.89342637       21      -0.08344608      -0.01925017       0.09097287
H        2.65698915       5.54703877       4.62045926       22       0.00975082      -0.01850994      -0.01755509
H        4.77961477       5.54652657       8.17708453       23      -0.01109773      -0.03161587       0.03001908
H        6.37510412       5.52592664       1.77885785       24       0.00231519      -0.00395260       0.02800651
H        1.06434232       5.52292059      11.01803185       25      -0.03315709       0.06648979       0.02413574
C        3.97076015      10.31519137       5.26684348       26       0.02835146       0.29748392      -0.27070481
C        3.46713023      10.31946424       7.53323814       27      -0.02168110       0.04691571       0.09941158
C        0.24876037       0.75418532       1.13271535       28       0.10395643      -0.39842534       0.25186771
C        7.18596788       0.75364619      11.66455955       29      -0.07452178      -0.29236966      -0.36505610
C        3.96613144       0.63712673       5.22821542       30       0.04511929      -0.13359025       0.01133254
C        3.47302913       0.63602860       7.56728826       31      -0.01181753       0.03143088       0.02607904
C        0.25063116      10.43211395       1.16951919       32      -0.05391215       0.08805709      -0.06042821
C        7.18794350      10.43285262      11.62399761       33       0.05234673       0.09979592       0.24522008
C        3.72137456       1.35859364       6.39758137       34      -0.04288373      -0.04391233      -0.03166341
C        7.43771407       9.70862265      12.79566862       35       0.01803033       0.17250863      -0.03854439
C        3.71701138       2.83242187       6.39645684       36       0.12939790      -0.09947178       0.19612984
C        0.00123017       8.23481568      12.79768794       37      -0.01546042       0.21350953      -0.07593638
C        3.15076131       3.55451185       5.34154324       38      -0.06782869      -0.05178930      -0.11299270
C        4.28828982       3.55209195       7.45831728       39      -0.10474512      -0.05487692      -0.12240640
C        6.87161642       7.51782293       1.05909526       40      -0.02779323      -0.06475897       0.07443184
C        0.56476880       7.51453128      11.73769255       41       0.13480969       0.23442051      -0.14425801
C        3.14704897       4.94013605       5.38557820       42       0.08268416      -0.01754701       0.03415945
C        4.28775523       4.93847760       7.41352841       43       0.05146940      -0.07587934       0.08751483
C        6.86692831       6.13137040       1.01475056       44       0.09235007       0.04809520      -0.07695550
C        0.57214288       6.13115756      11.78416977       45       0.03390625      -0.04405877      -0.18425366
C        6.69593613       7.73550776       7.74461999       46      -0.28156158       0.22843462      -0.26725695
C        0.74524978       7.73760322       5.04781413       47       0.09129174       0.21022215       0.35534570
C        2.97208821       3.33316854      11.44995518       48      -0.11084342      -0.10633144       0.22217494
C        4.46592178       3.33482696       1.34582648       49      -0.03385952      -0.28503412      -0.28688654
C        7.10581767       9.01397696       7.01850850       50       0.03411340      -0.11123961      -0.02929592
C        0.33676013       9.01376572       5.77881978       51      -0.04400674      -0.00788438       0.03069699
C        3.38250897       2.05578011      12.17711659       52       0.07767861       0.11377528       0.08069060
C        4.05665738       2.05228995       0.61931728       53      -0.07053306       0.32271394      -0.03551675
C        6.79983972      10.24191948       7.60924657       54      -0.16176696       0.19719620      -0.00714931
C        0.63884211      10.24427345       5.18988993       55       0.18945137       0.11010092      -0.08489287
C        3.08060404       0.82894230      11.58887873       56      -0.21244685      -0.27302229      -0.13326721
C        4.36092279       0.82839926       1.21147806       57       0.10688731      -0.25293627      -0.04174033
C        7.12220351       0.39217095       7.02033346       58       0.14188796      -0.19179235      -0.17871302
C        0.31555533       0.39371739       5.77670918       59      -0.14493182      -0.17154101       0.22517711
C        3.40465512      10.67720008      12.17333340       60       0.12926349       0.23163000       0.25605369
C        4.03207922      10.68033012       0.62190676       61      -0.03904879      -0.00098786      -0.07934773
N        3.71801026       9.63244040       6.39822634       62      -0.01050864       0.49302351       0.09456919
N       -0.00138953       1.43504003       0.00112565       63      -0.01800047      -0.33068168      -0.03493869
N        3.72110408       5.62053713       6.40029136       64      -0.09525113      -0.23507041      -0.11027543
N        0.00181629       5.45053721      12.79408704       65      -0.11330475       0.18840262       0.21102729
O        0.16998808       6.93323279       8.11091786       66      -0.09350166      -0.04862756       0.02642240
O        7.26505741       6.93838832       4.68523040       67       0.14710730      -0.03038669      -0.04191354
O        3.88951249       4.13659139      11.08489702       68      -0.21461165      -0.07735825       0.02698075
O        3.55023362       4.13635009       1.71194388       69       0.08292496       0.00442916      -0.00058756
O        5.46025045       7.58835534       7.95525275       70       0.04134622      -0.05621229       0.00245887
O        1.97772858       7.58541250       4.84006583       71       0.07268536      -0.07131383      -0.05309626
O        1.73823548       3.48255001      11.23510093       72       0.04087919       0.04239351       0.00305927
O        5.69538572       3.48240628       1.55961799       73       0.24751815       0.08755541       0.03670579
O        2.58840946       7.62125346       8.14549009       74      -0.22162381      -0.03894304       0.08062655
O        4.84705764       7.62096601       4.64720055       75       0.24634868      -0.08034162      -0.08915603
O        6.31106915       3.44874906      11.04776161       76      -0.16005498       0.17097801      -0.20031512
O        1.12601109       3.45136371       1.74940184       77       0.30338126       0.02748359       0.04709323
F        6.15392025      10.29525615       8.80826173       78      -0.01700205      -0.11232789      -0.05877241
F        1.27963197      10.29489425       3.98650762       79       0.01740600      -0.08851501       0.09102625
F        2.43855407       0.77377567      10.38760607       80      -0.03870834       0.11517781       0.04143205
F        5.00052591       0.77720336       2.41112575       81       0.06756207       0.08777349      -0.00142530
F        6.84074902       1.55745174       7.64019751       82      -0.05102786       0.00606093       0.09701848
F        0.59848029       1.56073406       5.16028671       83       0.04409953      -0.01169688      -0.10120058
F        3.12169377       9.51101668      11.55799174       84      -0.05121724      -0.00446478      -0.12378621
F        4.31503388       9.51034635       1.24248336       85       0.01263615       0.12730742       0.03419036
86
Lattice="7.4388014 0.0 0.0 -0.00016846054457237338 11.07003958871821 0.0 -9.700238089670627e-05 -0.00019359531501912636 12.795733918167803" Properties=species:S:1:pos:R:3:spacegroup_kinds:I:1:forces:R:3 spacegroup="P 1" unit_cell=conventional occupancy="_JSON {\"0\": {\"Cu\": 1}, \"1\": {\"Cu\": 1}, \"2\": {\"H\": 1}, \"3\": {\"H\": 1}, \"4\": {\"H\": 1}, \"5\": {\"H\": 1}, \"6\": {\"H\": 1}, \"7\": {\"H\": 1}, \"8\": {\"H\": 1}, \"9\": {\"H\": 1}, \"10\": {\"H\": 1}, \"11\": {\"H\": 1}, \"12\": {\"H\": 1}, \"13\": {\"H\": 1}, \"14\": {\"H\": 1}, \"15\": {\"H\": 1}, \"16\": {\"H\": 1}, \"17\": {\"H\": 1}, \"18\": {\"H\": 1}, \"19\": {\"H\": 1}, \"20\": {\"H\": 1}, \"21\": {\"H\": 1}, \"22\": {\"H\": 1}, \"23\": {\"H\": 1}, \"24\": {\"H\": 1}, \"25\": {\"H\": 1}, \"26\": {\"C\": 1}, \"27\": {\"C\": 1}, \"28\": {\"C\": 1}, \"29\": {\"C\": 1}, \"30\": {\"C\": 1}, \"31\": {\"C\": 1}, \"32\": {\"C\": 1}, \"33\": {\"C\": 1}, \"34\": {\"C\": 1}, \"35\": {\"C\": 1}, \"36\": {\"C\": 1}, \"37\": {\"C\": 1}, \"38\": {\"C\": 1}, \"39\": {\"C\": 1}, \"40\": {\"C\": 1}, \"41\": {\"C\": 1}, \"42\": {\"C\": 1}, \"43\": {\"C\": 1}, \"44\": {\"C\": 1}, \"45\": {\"C\": 1}, \"46\": {\"C\": 1}, \"47\": {\"C\": 1}, \"48\": {\"C\": 1}, \"49\": {\"C\": 1}, \"50\": {\"C\": 1}, \"51\": {\"C\": 1}, \"52\": {\"C\": 1}, \"53\": {\"C\": 1}, \"54\": {\"C\": 1}, \"55\": {\"C\": 1}, \"56\": {\"C\": 1}, \"57\": {\"C\": 1}, \"58\": {\"C\": 1}, \"59\": {\"C\": 1}, \"60\": {\"C\": 1}, \"61\": {\"C\": 1}, \"62\": {\"N\": 1}, \"63\": {\"N\": 1}, \"64\": {\"N\": 1}, \"65\": {\"N\": 1}, \"66\": {\"O\": 1}, \"67\": {\"O\": 1}, \"68\": {\"O\": 1}, \"69\": {\"O\": 1}, \"70\": {\"O\": 1}, \"71\": {\"O\": 1}, \"72\": {\"O\": 1}, \"73\": {\"O\": 1}, \"74\": {\"O\": 1}, \"75\": {\"O\": 1}, \"76\": {\"O\": 1}, \"77\": {\"O\": 1}, \"78\": {\"F\": 1}, \"79\": {\"F\": 1}, \"80\": {\"F\": 1}, \"81\": {\"F\": 1}, \"82\": {\"F\": 1}, \"83\": {\"F\": 1}, \"84\": {\"F\": 1}, \"85\": {\"F\": 1}}" energy=-571.0962524414062 free_energy=-571.0962524414062 stress="0.0014517062809318304 0.00029813553555868566 -0.0005654172273352742 0.00029813553555868566 -0.005602972116321325 -0.00017975083028431982 -0.0005654172273352742 -0.00017975083028431982 -8.313622674904764e-05" pbc="T T T"
Cu       3.71793664       7.62543099       6.39968080        0       0.00979435       0.03235782       0.00794221
Cu      -0.00012436       3.44362908      -0.00098031        1      -0.00430037      -0.01248285      -0.00002603
H        1.59110922       7.30916335       8.08373547        2       0.35805875       0.08120912       0.02351864
H        5.84830445       7.31365660       4.71764579        3      -0.39088386       0.05570359      -0.08125278
H        5.31274523       3.75889610      11.11830014        4       0.33116251      -0.05544330      -0.06354119
H        2.12880012       3.75990581       1.68456535        5      -0.40976271      -0.09582335       0.04442096
H        3.03954652       7.03435286       8.77569805        6      -0.07255839      -0.00201576      -0.03754945
H        4.39650048       7.02678519       4.01999343        7       0.11089960      -0.01102714       0.03938027
H        6.76433956       4.03856736      10.41568410        8      -0.25243562      -0.18435898       0.25008619
H        0.67672214       4.03994918       2.38445683        9       0.21369997      -0.17319992      -0.23799503
H        4.17707357       9.71527204       4.38206222       10      -0.01305335       0.13251470      -0.04368675
H        3.25248575       9.71655869       8.41595706       11       0.05355379       0.18857150      -0.01830396
H        0.46456807       1.35578923       2.01009573       12      -0.01120035      -0.11432645       0.10514196
H        6.97455839       1.35598780      10.78023396       13       0.03277623      -0.16744184       0.01734455
H        4.18647285       1.14762066       4.29024033       14      -0.09009978      -0.12160522       0.14564501
H        3.25876174       1.14249696       8.50479981       15       0.01749273      -0.00981696       0.04980449
H        0.46582497       9.91938736       2.10699547       16      -0.08173318       0.17847636      -0.18298498
H        6.97353229       9.92665415      10.69200570       17       0.00498665      -0.01773331      -0.15319148
H        2.68206634       3.04729363       4.49498475       18       0.07225320       0.03279883       0.10973536
H        4.75128773       3.04390152       8.30226153       19       0.00161378      -0.04361496       0.00002988
H        6.40319890       8.01951422       1.90505853       20       0.05134389       0.06496947      -0.05625466
H        1.03736719       8.02323091      10.89062731       21      -0.08142084      -0.00405660       0.10039376
H        2.65439149       5.54905129       4.61875879       22       0.05313633      -0.05787480       0.02992534
H        4.77841874       5.54598193       8.17450756       23       0.03853374       0.03330853       0.11215885
H        6.37592460       5.52607855       1.78023956       24       0.00110961      -0.00297579       0.03116120
H        1.06417951       5.52220463      11.01676997       25       0.00226646       0.03553792      -0.02207347
C        3.96886512      10.31617517       5.26601317       26       0.01084061       0.30213553      -0.21202461
C        3.46983206      10.31882595       7.53159968       27      -0.15071574       0.12012321       0.35713145
C        0.25053461       0.75448532       1.12993265       28       0.09183778      -0.35888490       0.34573787
C        7.18624547       0.75417692      11.66565933       29      -0.11267236      -0.31384873      -0.53115225
C        3.96450187       0.63829649       5.23006146       30       0.10556338      -0.08173034      -0.14975755
C        3.47021390       0.63724265       7.56845123       31       0.05656455      -0.01160270      -0.02101392
C        0.24784989      10.43372963       1.16675507       32       0.06164810      -0.06721255       0.25195187
C        7.18832983      10.43382074      11.62272298       33       0.05425433       0.05986547       0.32230181
C        3.72157312       1.36151914       6.40026097       34      -0.07499696      -0.23722416      -0.09430236
C        7.43760256       9.70928468      12.79624692       35      -0.03075241       0.09863105      -0.19210368
C        3.71850516       2.83002030       6.39376442       36       0.15767448       0.08483483       0.32952499
C       -0.00064054       8.23262382      12.79675838       37       0.08390872       0.38043159      -0.17110440
C        3.15162707       3.55518774       5.34274671       38      -0.14778003      -0.11463414      -0.34762183
C        4.28960810       3.55017683       7.45586172       39      -0.08489148       0.08377571      -0.07246561
C        6.87313101       7.51830296       1.05749264       40      -0.15773541      -0.08008577       0.28276649
C        0.56665338       7.51504252      11.73637774       41       0.10352264       0.16621459      -0.12780535
C        3.14959190       4.94128467       5.38307884       42       0.03252792      -0.02319062       0.05778405
C        4.28855385       4.94131987       7.41209846       43       0.02063739      -0.37697348       0.06526026
C        6.86696924       6.13322020       1.01736225       44       0.20961945      -0.09367064      -0.29124606
C        0.57447094       6.13000027      11.78199389       45      -0.02658042       0.04125658      -0.09783134
C        6.69888083       7.73336524       7.74396454       46      -0.52630293       0.38173464      -0.27227780
C        0.74439135       7.73794667       5.05063551       47       0.08593722       0.11415023       0.26494449
C        2.96941022       3.33382562      11.45139519       48       0.17607859      -0.16071540       0.23257980
C        4.46330039       3.33608991       1.34822798       49       0.12833813      -0.30187747      -0.33515483
C        7.10769777       9.01339137       7.01985484       50      -0.00590233      -0.15092236      -0.07318435
C        0.33487485       9.01243240       5.77657823       51      -0.04827402       0.09005237       0.14233351
C        3.38490946       2.05349772      12.17977797       52      -0.07052287       0.16417527      -0.14046361
C        4.05580687       2.05392302       0.61925331       53       0.00273830       0.25911516       0.09497657
C        6.79873825      10.23942450       7.61059007       54      -0.10122448       0.29451701      -0.04071209
C        0.63820076      10.24471911       5.19232667       55       0.17665677       0.10627737      -0.13249183
C        3.07869161       0.82641404      11.58791937       56      -0.17705648      -0.09352837      -0.10351467
C        4.36109999       0.82998335       1.21120212       57       0.08086187      -0.44617081      -0.03774121
C        7.12485145       0.39174571       7.02174484       58       0.06651350      -0.29623461      -0.14480974
C        0.31315685       0.39582784       5.77804618       59      -0.06271105      -0.28888476       0.16336717
C        3.40424083      10.67791790      12.17358428       60       0.09101006       0.18558560       0.22208196
C        4.02945479      10.67781395       0.62120584       61       0.06688614       0.22623453       0.05332197
N        3.71523637       9.63431409       6.39993109       62       0.06162725       0.38439846      -0.09358440
N       -0.00060710       1.43351026      -0.00036697       63      -0.00208092      -0.19490254       0.01675150
N        3.72088589       5.62101756       6.40122912       64      -0.11413686      -0.20479703      -0.21214770
N        0.00359021       5.44971058      12.79182009       65      -0.18972567       0.28731227       0.36430287
O        0.16934473       6.93586125       8.11222966       66       0.08734494      -0.22420733       0.09096148
O        7.26516509       6.93704824       4.68630432       67       0.16444603       0.00122997      -0.01363803
O        3.88693898       4.13782763      11.08378297       68      -0.23045349      -0.10465908       0.05821249
O        3.54764441       4.13531209       1.71478542       69       0.09762719       0.04446158       0.03013017
O        5.46160861       7.58654673       7.95715111       70       0.08180618      -0.04056577      -0.03621772
O        1.97656177       7.58280479       4.84195762       71       0.08615220      -0.04742991      -0.03209272
O        1.74032918       3.48053448      11.23406460       72      -0.21048608       0.06019527      -0.01725155
O        5.69616123       3.48463348       1.55706494       73       0.09982821       0.08020009       0.03582495
O        2.58723232       7.62034359       8.14486416       74      -0.19079542      -0.00889489       0.07642161
O        4.84844961       7.61874424       4.64542965       75       0.19989675       0.02348395      -0.01687257
O        6.30846251       3.44876228      11.05048579       76      -0.02474904       0.17854089      -0.24623662
O        1.12883438       3.44908603       1.74874988       77       0.12536198       0.19905835       0.24214473
F        6.15448080      10.29528793       8.81049814       78      -0.01552823      -0.12195420      -0.07734555
F        1.27845569      10.29487063       3.98835605       79       0.01905538      -0.07557565       0.09232485
F        2.43606227       0.77486605      10.38504139       80      -0.00749052       0.10468000       0.11574346
F        4.99850436       0.77454245       2.41365655       81       0.04642028       0.11273271      -0.06503657
F        6.84115551       1.55510268       7.63800685       82      -0.07244392       0.09531784       0.17116459
F        0.60084405       1.56080684       5.16145772       83       0.03069679       0.00995633      -0.10104919
F        3.12104695       9.51303399      11.56059202       84      -0.07310010      -0.10439786      -0.18303633
F        4.31609717       9.50847829       1.24009355       85      -0.00000682       0.12244609       0.03341164
86
Lattice="7.4388014 0.0 0.0 -0.00016846054457237338 11.07003958871821 0.0 -9.700238089670627e-05 -0.00019359531501912636 12.795733918167803" Properties=species:S:1:pos:R:3:spacegroup_kinds:I:1:forces:R:3 spacegroup="P 1" unit_cell=conventional occupancy="_JSON {\"0\": {\"Cu\": 1}, \"1\": {\"Cu\": 1}, \"2\": {\"H\": 1}, \"3\": {\"H\": 1}, \"4\": {\"H\": 1}, \"5\": {\"H\": 1}, \"6\": {\"H\": 1}, \"7\": {\"H\": 1}, \"8\": {\"H\": 1}, \"9\": {\"H\": 1}, \"10\": {\"H\": 1}, \"11\": {\"H\": 1}, \"12\": {\"H\": 1}, \"13\": {\"H\": 1}, \"14\": {\"H\": 1}, \"15\": {\"H\": 1}, \"16\": {\"H\": 1}, \"17\": {\"H\": 1}, \"18\": {\"H\": 1}, \"19\": {\"H\": 1}, \"20\": {\"H\": 1}, \"21\": {\"H\": 1}, \"22\": {\"H\": 1}, \"23\": {\"H\": 1}, \"24\": {\"H\": 1}, \"25\": {\"H\": 1}, \"26\": {\"C\": 1}, \"27\": {\"C\": 1}, \"28\": {\"C\": 1}, \"29\": {\"C\": 1}, \"30\": {\"C\": 1}, \"31\": {\"C\": 1}, \"32\": {\"C\": 1}, \"33\": {\"C\": 1}, \"34\": {\"C\": 1}, \"35\": {\"C\": 1}, \"36\": {\"C\": 1}, \"37\": {\"C\": 1}, \"38\": {\"C\": 1}, \"39\": {\"C\": 1}, \"40\": {\"C\": 1}, \"41\": {\"C\": 1}, \"42\": {\"C\": 1}, \"43\": {\"C\": 1}, \"44\": {\"C\": 1}, \"45\": {\"C\": 1}, \"46\": {\"C\": 1}, \"47\": {\"C\": 1}, \"48\": {\"C\": 1}, \"49\": {\"C\": 1}, \"50\": {\"C\": 1}, \"51\": {\"C\": 1}, \"52\": {\"C\": 1}, \"53\": {\"C\": 1}, \"54\": {\"C\": 1}, \"55\": {\"C\": 1}, \"56\": {\"C\": 1}, \"57\": {\"C\": 1}, \"58\": {\"C\": 1}, \"59\": {\"C\": 1}, \"60\": {\"C\": 1}, \"61\": {\"C\": 1}, \"62\": {\"N\": 1}, \"63\": {\"N\": 1}, \"64\": {\"N\": 1}, \"65\": {\"N\": 1}, \"66\": {\"O\": 1}, \"67\": {\"O\": 1}, \"68\": {\"O\": 1}, \"69\": {\"O\": 1}, \"70\": {\"O\": 1}, \"71\": {\"O\": 1}, \"72\": {\"O\": 1}, \"73\": {\"O\": 1}, \"74\": {\"O\": 1}, \"75\": {\"O\": 1}, \"76\": {\"O\": 1}, \"77\": {\"O\": 1}, \"78\": {\"F\": 1}, \"79\": {\"F\": 1}, \"80\": {\"F\": 1}, \"81\": {\"F\": 1}, \"82\": {\"F\": 1}, \"83\": {\"F\": 1}, \"84\": {\"F\": 1}, \"85\": {\"F\": 1}}" energy=-571.0873413085938 free_energy=-571.0873413085938 stress="0.0011655711568892002 0.0005648788646794856 -0.0003884022880811244 0.0005648788646794856 -0.005641594063490629 -0.00018561806064099073 -0.0003884022880811244 -0.00018561806064099073 0.000559481093659997" pbc="T T T"
Cu       3.71928514       7.62264776       6.40242265        0       0.00591569       0.09354533      -0.00209733
Cu      -0.00121004       3.44356876      -0.00086265        1      -0.01352957      -0.03022534       0.01297021
H        1.58906562       7.30695268       8.08379308        2       0.43602550       0.12309449       0.02208810
H        5.84661090       7.31582068       4.72001256        3      -0.34227833       0.02244324      -0.09139612
H        5.31093546       3.75834522      11.11907387        4       0.35952955      -0.06193770      -0.07284857
H        2.12671010       3.75977927       1.68567750        5      -0.40812168      -0.09796707       0.03885407
H        3.04148020       7.03460772       8.77433755        6      -0.08248201       0.01529451      -0.04759385
H        4.39444068       7.02445997       4.01809962        7       0.18986405       0.06815967       0.13465585
H        6.76706614       4.03961684      10.41450474        8      -0.35679546      -0.30398136       0.37738919
H        0.67865796       4.03878855       2.38613692        9       0.10967290      -0.04929113      -0.10995597
H        4.17909010       9.71761867       4.38080870       10      -0.01391770       0.08292864      -0.08943135
H        3.25350124       9.71855429       8.41437203       11       0.03926450       0.13976592       0.06510561
H        0.46396001       1.35769148       2.01112790       12      -0.02973645      -0.13671921       0.08740137
H        6.97167852       1.35652604      10.77903570       13       0.04934368      -0.19241434       0.07671015
H        4.18887203       1.14731939       4.28905255       14      -0.09970185      -0.11769567       0.13513945
H        3.25987126       1.14226594       8.50695940       15       0.02777452      -0.03374216      -0.03408840
H        0.46290583       9.91872623       2.10844141       16      -0.06903467       0.18753558      -0.19719526
H        6.97369312       9.92388388      10.69078301       17       0.00959716       0.04171634      -0.10816227
H        2.68114193       3.04652131       4.49764951       18       0.03036115      -0.02144744       0.03523293
H        4.75218709       3.04269565       8.30331712       19       0.01333710      -0.04036964       0.01172328
H        6.40534221       8.01776750       1.90628128       20       0.04280397       0.10870014      -0.03920165
H        1.03883165       8.02526258      10.89236467       21      -0.05314958       0.01165981       0.04075220
H        2.65564170       5.55148373       4.61896668       22       0.06297472      -0.09797709       0.04934124
H        4.77813287       5.54478592       8.17715589       23       0.05069234       0.07561362       0.10398433
H        6.37398007       5.52507898       1.78300812       24       0.00710221       0.02071621       0.01883612
H        1.06168368       5.52011265      11.01558105       25      -0.02961731       0.06553239       0.04481687
C        3.96661672      10.31555739       5.26335794       26      -0.00126423       0.38479680      -0.10965465
C        3.47003644      10.32025339       7.53331328       27      -0.13246880       0.13257697       0.11762202
C        0.24778651       0.75306758       1.13277438       28       0.12312321      -0.25823942       0.23049027
C        7.18510376       0.75511801      11.66693120       29      -0.14728761      -0.31724226      -0.71347976
C        3.96175209       0.63824727       5.22752460       30       0.11531790      -0.03036218      -0.09116974