88
Lattice="9.23213013 0.0 0.0 4.908688698559445e-06 9.837255869998776 0.0 -1.104148142601199 4.777223433229213e-06 10.686104741469574" Properties=species:S:1:pos:R:3:spacegroup_kinds:I:1:forces:R:3 spacegroup="P 1" unit_cell=conventional occupancy="_JSON {\"0\": {\"Zn\": 1}, \"1\": {\"Zn\": 1}, \"2\": {\"Zn\": 1}, \"3\": {\"Zn\": 1}, \"4\": {\"H\": 1}, \"5\": {\"H\": 1}, \"6\": {\"H\": 1}, \"7\": {\"H\": 1}, \"8\": {\"H\": 1}, \"9\": {\"H\": 1}, \"10\": {\"H\": 1}, \"11\": {\"H\": 1}, \"12\": {\"H\": 1}, \"13\": {\"H\": 1}, \"14\": {\"H\": 1}, \"15\": {\"H\": 1}, \"16\": {\"H\": 1}, \"17\": {\"H\": 1}, \"18\": {\"H\": 1}, \"19\": {\"H\": 1}, \"20\": {\"H\": 1}, \"21\": {\"H\": 1}, \"22\": {\"H\": 1}, \"23\": {\"H\": 1}, \"24\": {\"H\": 1}, \"25\": {\"H\": 1}, \"26\": {\"H\": 1}, \"27\": {\"H\": 1}, \"28\": {\"C\": 1}, \"29\": {\"C\": 1}, \"30\": {\"C\": 1}, \"31\": {\"C\": 1}, \"32\": {\"C\": 1}, \"33\": {\"C\": 1}, \"34\": {\"C\": 1}, \"35\": {\"C\": 1}, \"36\": {\"C\": 1}, \"37\": {\"C\": 1}, \"38\": {\"C\": 1}, \"39\": {\"C\": 1}, \"40\": {\"C\": 1}, \"41\": {\"C\": 1}, \"42\": {\"C\": 1}, \"43\": {\"C\": 1}, \"44\": {\"C\": 1}, \"45\": {\"C\": 1}, \"46\": {\"C\": 1}, \"47\": {\"C\": 1}, \"48\": {\"C\": 1}, \"49\": {\"C\": 1}, \"50\": {\"C\": 1}, \"51\": {\"C\": 1}, \"52\": {\"C\": 1}, \"53\": {\"C\": 1}, \"54\": {\"C\": 1}, \"55\": {\"C\": 1}, \"56\": {\"C\": 1}, \"57\": {\"C\": 1}, \"58\": {\"C\": 1}, \"59\": {\"C\": 1}, \"60\": {\"C\": 1}, \"61\": {\"C\": 1}, \"62\": {\"C\": 1}, \"63\": {\"C\": 1}, \"64\": {\"C\": 1}, \"65\": {\"C\": 1}, \"66\": {\"C\": 1}, \"67\": {\"C\": 1}, \"68\": {\"N\": 1}, \"69\": {\"N\": 1}, \"70\": {\"N\": 1}, \"71\": {\"N\": 1}, \"72\": {\"N\": 1}, \"73\": {\"N\": 1}, \"74\": {\"N\": 1}, \"75\": {\"N\": 1}, \"76\": {\"N\": 1}, \"77\": {\"N\": 1}, \"78\": {\"N\": 1}, \"79\": {\"N\": 1}, \"80\": {\"O\": 1}, \"81\": {\"O\": 1}, \"82\": {\"O\": 1}, \"83\": {\"O\": 1}, \"84\": {\"O\": 1}, \"85\": {\"O\": 1}, \"86\": {\"O\": 1}, \"87\": {\"O\": 1}}" energy=-614.6375122070312 free_energy=-614.6375122070312 stress="-0.004795771092176437 0.0024258813355118036 0.0012025515316054225 0.0024258813355118036 -0.0005717076710425317 -0.0030884614679962397 0.0012025515316054225 -0.0030884614679962397 -0.006194133311510086" pbc="T T T"
Zn       7.03481626       2.67577251       1.50761145        0       0.23506764       0.21983740      -0.00702891
Zn       5.68116403       7.60344383       9.16820143        1       0.04530299      -0.11791014       0.22399479
Zn       1.07215102       7.14711861       9.21572737        2      -0.14143100       0.45445293      -0.48533553
Zn       2.44878339       2.25559965       1.47636901        3      -0.24884841      -0.06627463       0.36802912
H        8.09166170       9.16565993       7.22024621        4       0.00647513       0.61567104       0.54703140
H        4.65422538       4.26888491       3.42045143        5      -0.06433669      -0.94518590       0.56551313
H        0.00865163       0.69420938       3.41933554        6      -0.09061524       0.29901785       0.28173292
H        3.49740089       5.61062089       7.24378156        7       0.01296449      -0.53567541       0.45723069
H        0.24999675       1.33572324       6.54299413        8      -0.36538744      -0.05165895       0.38289210
H        3.26732162       6.20867642       4.14284028        9       0.26461115      -0.02293719      -0.27599883
H        7.87738359       8.50883153       4.10737108       10       0.19856071       0.04677122      -0.15515561
H        4.86278403       3.64061390       6.54201996       11       0.04925486      -0.09105238       0.09748869
H        0.19072445       3.42376176       7.80354390       12      -0.31873214      -0.33549827       0.13206747
H        3.31366651       8.32220145       2.90090014       13       0.33664042      -0.31649494      -0.32981324
H        7.91598448       6.40291627       2.87841468       14       1.10776472       1.40100563      -0.61284113
H        4.82328076       1.52425376       7.82209382       15      -0.48430470       0.46947888       0.16680855
H        7.99539222       3.65681530       9.81140378       16      -0.02016181       1.34842992       0.80881941
H        4.74696951       8.60823276       0.86511280       17       0.14568204      -0.61287731       0.24228543
H        0.13771213       6.16586350       0.84431748       18       0.02834333       0.15071136       0.07527315
H        3.35898853       1.25734522       9.84937172       19       0.15942396       0.40612411      -0.43294236
H        6.51126675       0.21539884       4.95145822       20      -0.48826316      -0.03997202      -0.19437873
H        6.24554455       5.15512280       5.73646286       21      -0.34056488       0.06684498       0.15175904
H        1.60913082       9.62352775       5.75172923       22       0.07158646      -0.07241422       0.15635172
H        1.87884323       4.68461388       4.93473453       23       0.01926783       0.09234978      -0.02785551
H        2.44944509       1.17452947       3.85964859       24      -0.40762529       0.36885580      -0.50550449
H        1.08095742       6.07453915       6.81715738       25      -0.60779637      -0.32802898      -0.19112760
H        5.64691896       8.65217386       6.79855447       26       0.84235686      -0.53529066       0.67478132
H        7.04979803       3.76880813       3.86458398       27       0.06062385      -0.04411881      -0.03193740
C        7.27599564       0.41585894       8.95436717       28      -0.54369879      -0.43005657       0.05029470
C        5.45713632       5.32165879       1.73457132       29       0.95890093      -0.13873962      -1.04918396
C        0.84127132       9.42142724       1.72647906       30       0.67916787       0.90311158       0.37312615
C        2.63517626       4.50120273       8.95007094       31      -0.01719862       0.76830161      -0.68157744
C        8.05371888       0.26451783       7.82376134       32       1.29492426       0.57833618      -1.71615934
C        4.69587705       5.17649417       2.87846490       33      -0.65935361       1.01287270       0.14202395
C        0.05599535       9.59359406       2.89622380       34       0.41264033      -1.03168130      -1.27590668
C        3.45438991       4.66808762       7.82793114       35       0.61605322      -0.59364170      -0.92801815
C       -0.41203916       1.39815840       7.42595696       36      -0.35059589      -1.41597342      -0.17400366
C        3.92674428       6.27692522       3.26327287       37      -0.24637121       0.45581681      -0.10857260
C        8.54993680       8.46385985       3.23904955       38      -0.62649930       0.64081883       0.98454058
C        4.23438953       3.54135590       7.42792313       39      -0.91796577       2.04093695      -0.09496368
C       -0.44848628       2.59511280       8.15519089       40       1.49423575       0.59020984      -1.42346883
C        3.94004911       7.49542176       2.52450234       41      -0.54127502      -0.47037151       1.31214666
C        8.57629767       7.27842803       2.51629803       42      -1.35786176      -1.86487079       0.76344520
C        4.17135162       2.36514211       8.14224854       43       1.41595101      -1.63268924      -0.47079349
C        8.03546426       2.76564103       9.26301405       44      -1.97949171      -2.76802778       1.01346111
C        4.74880316       7.64152707       1.41498670       45      -1.02185965       2.26579213      -0.42896000
C        0.12979050       7.11542757       1.39086301       46      -0.87302989      -1.80159712      -0.12797777
C        3.39674188       2.19818263       9.26432904       47      -0.45803985      -0.89857030       0.99210888
C        7.22731895       1.60611972       9.66420025       48       1.99721658       3.05235386      -0.16261899
C        5.47189353       6.56192582       1.02224324       49       1.48054886      -2.54354596      -0.30584821
C        0.86635227       8.18484637       1.00294865       50       1.24008512       2.88121653      -0.21146990
C        2.61472951       3.27494288       9.64563978       51      -0.50489092       0.93154860       0.66256189
C        5.05518889       1.50586606       3.05168880       52      -0.59574991      -0.05544377       0.82777381
C        7.66343697       6.40968460       7.59018757       53      -0.67182493       0.23038065       0.11847171
C        3.06245908       8.31242679       7.61377890       54       1.12950635       1.12050223      -0.96031332
C        0.45939625       3.43493355       3.09712252       55      -1.66516542      -0.22870502      -0.31789601
C        4.51370661       0.76375830       4.25548991       56       1.12557995       0.02883019      -0.82097661
C        8.19026530       5.67544042       6.44531750       57       0.65109289      -0.27153194      -0.46053508
C        3.62024981       9.10101374       6.41456398       58      -1.75143194      -0.86985570       1.12505746
C       -0.10596554       4.19061193       4.25372749       59       1.20103788      -0.28464779      -0.21507086
C        5.42537349       0.09377611       5.09697428       60       0.60801852       0.15347806       0.39636907
C        7.30692978       5.05443346       5.58359390       61      -0.13259986      -0.99153650      -1.25676513
C        2.67881115       9.72312451       5.58854264       62       0.92172259       1.13223624      -1.70542312
C        0.81541943       4.81507007       5.11269365       63      -0.54934907       0.03219184       0.39935207
C        3.15971399       0.66522713       4.46837356       64      -1.03614604      -1.46842146       2.22091556
C        0.33351930       5.53748074       6.19729073       65       1.13255537       0.59980798       0.32313079
C        4.97574678       9.18302280       6.18295451       66      -0.07064202       0.88124502      -1.26314092
C        7.77148080       4.27524391       4.49832997       67      -0.88421279       0.75216478       0.68826520
N        7.49416090       1.46102249       0.03062037       68      -0.63901424      -0.72654575      -0.31811717
N        5.27348033       6.32917148      10.69304298       69      -0.32232851       3.05596256      -1.29224253
N        0.65109056       8.41846754      10.66286885       70       0.20170937      -0.87319368      -0.50139225
N        2.85157054       3.49221294       0.02504879       71       0.42803368      -0.61633599      -0.41876012
N        5.87341819       0.22192460      10.61623554       72      -0.81637216       0.31766611       1.34972572
N        6.87030115       5.15271815       0.01794801       73      -0.02165724      -1.79563558       1.17065060
N        2.27216607       9.62497880       0.03574003       74      -0.21057756       0.49509662       0.88399738
N        1.27857574       4.70755075      10.66041041       75      -0.71943998       1.04317725      -0.34207556
N        6.38559061       9.43113670       9.59636699       76       0.19815542      -1.03789878      -0.68578106
N        6.33441797       4.47021459       1.07243362       77      -0.29694873       0.26863673       0.18799424
N        1.75950104       0.44668883       1.11487501       78      -0.84137958      -1.33652854      -0.41979390
N        1.75868352       5.37231896       9.57435660       79       0.59249169      -1.46234775       0.78332353
O        6.31270821       1.73327937       3.07464005       80       0.21963175      -0.11081952      -0.11924116
O        6.38845970       6.62285003       7.60078581       81      -0.00285293      -0.04324173      -0.06745496
O        1.81573459       8.12750250       7.59742705       82      -1.21901667      -0.45556086       0.27071610
O        1.69601159       3.18223521       3.08891563       83       1.16810203       0.07011952       0.09776174
O        4.30549300       1.91205069       2.10811217       84       0.55712569      -0.15279998       0.11644407
O       -0.83927321       6.80653411       8.53166165       85       0.52527606       0.33467329       0.78847426
O        3.79277790       7.94850256       8.58123187       86       0.02230090      -0.18955900       0.21488178
O        8.92893545       3.02888963       2.15438006       87       0.26691961       0.09872781      -0.01465009
88
Lattice="9.23213013 0.0 0.0 4.908688698559445e-06 9.837255869998776 0.0 -1.104148142601199 4.777223433229213e-06 10.686104741469574" Properties=species:S:1:pos:R:3:spacegroup_kinds:I:1:forces:R:3 spacegroup="P 1" unit_cell=conventional occupancy="_JSON {\"0\": {\"Zn\": 1}, \"1\": {\"Zn\": 1}, \"2\": {\"Zn\": 1}, \"3\": {\"Zn\": 1}, \"4\": {\"H\": 1}, \"5\": {\"H\": 1}, \"6\": {\"H\": 1}, \"7\": {\"H\": 1}, \"8\": {\"H\": 1}, \"9\": {\"H\": 1}, \"10\": {\"H\": 1}, \"11\": {\"H\": 1}, \"12\": {\"H\": 1}, \"13\": {\"H\": 1}, \"14\": {\"H\": 1}, \"15\": {\"H\": 1}, \"16\": {\"H\": 1}, \"17\": {\"H\": 1}, \"18\": {\"H\": 1}, \"19\": {\"H\": 1}, \"20\": {\"H\": 1}, \"21\": {\"H\": 1}, \"22\": {\"H\": 1}, \"23\": {\"H\": 1}, \"24\": {\"H\": 1}, \"25\": {\"H\": 1}, \"26\": {\"H\": 1}, \"27\": {\"H\": 1}, \"28\": {\"C\": 1}, \"29\": {\"C\": 1}, \"30\": {\"C\": 1}, \"31\": {\"C\": 1}, \"32\": {\"C\": 1}, \"33\": {\"C\": 1}, \"34\": {\"C\": 1}, \"35\": {\"C\": 1}, \"36\": {\"C\": 1}, \"37\": {\"C\": 1}, \"38\": {\"C\": 1}, \"39\": {\"C\": 1}, \"40\": {\"C\": 1}, \"41\": {\"C\": 1}, \"42\": {\"C\": 1}, \"43\": {\"C\": 1}, \"44\": {\"C\": 1}, \"45\": {\"C\": 1}, \"46\": {\"C\": 1}, \"47\": {\"C\": 1}, \"48\": {\"C\": 1}, \"49\": {\"C\": 1}, \"50\": {\"C\": 1}, \"51\": {\"C\": 1}, \"52\": {\"C\": 1}, \"53\": {\"C\": 1}, \"54\": {\"C\": 1}, \"55\": {\"C\": 1}, \"56\": {\"C\": 1}, \"57\": {\"C\": 1}, \"58\": {\"C\": 1}, \"59\": {\"C\": 1}, \"60\": {\"C\": 1}, \"61\": {\"C\": 1}, \"62\": {\"C\": 1}, \"63\": {\"C\": 1}, \"64\": {\"C\": 1}, \"65\": {\"C\": 1}, \"66\": {\"C\": 1}, \"67\": {\"C\": 1}, \"68\": {\"N\": 1}, \"69\": {\"N\": 1}, \"70\": {\"N\": 1}, \"71\": {\"N\": 1}, \"72\": {\"N\": 1}, \"73\": {\"N\": 1}, \"74\": {\"N\": 1}, \"75\": {\"N\": 1}, \"76\": {\"N\": 1}, \"77\": {\"N\": 1}, \"78\": {\"N\": 1}, \"79\": {\"N\": 1}, \"80\": {\"O\": 1}, \"81\": {\"O\": 1}, \"82\": {\"O\": 1}, \"83\": {\"O\": 1}, \"84\": {\"O\": 1}, \"85\": {\"O\": 1}, \"86\": {\"O\": 1}, \"87\": {\"O\": 1}}" energy=-613.6661376953125 free_energy=-613.6661376953125 stress="-0.00034737447276711464 -0.00017056481738109142 0.0012931482633575797 -0.00017056481738109142 -0.005765159148722887 -0.004079857375472784 0.0012931482633575797 -0.004079857375472784 -0.006050324533134699" pbc="T T T"
Zn       7.01837961       2.66567239       1.49737323        0       0.41719848       0.32723224       0.28673360
Zn       5.70766347       7.62265900       9.19538514        1      -0.09798215      -0.04722335      -0.04135362
Zn       1.09723715       7.17092011       9.18776825        2      -0.27057770       0.10919116       0.10551436
Zn       2.47137374       2.27032978       1.49598917        3      -0.54061574      -0.18225229      -0.01920514
H        8.06456934       9.18218537       7.19564842        4      -0.02515066       0.35371169       0.59538412
H        4.65018216       4.25253589       3.40700858        5      -0.11099304       0.10961692       0.15562358
H       -0.01482867       0.67805095       3.39152695        6      -0.22098978       0.37851852       0.54444581
H        3.51469967       5.58539643       7.22128231        7      -0.15034699      -0.28367060       0.63447452
H        0.22659165       1.32575980       6.52002598        8      -0.63208234       0.00816308       0.97825837
H        3.26898056       6.22649860       4.11378243        9       0.03876404      -0.03058650       0.07521652
H        7.85595141       8.50866959       4.10860595       10       0.48935086      -0.02879679      -0.74042946
H        4.84138674       3.61214382       6.52707206       11      -0.37738425       0.16487971       0.77280366
H        0.16458074       3.40525736       7.80760460       12       0.35415882       0.45701054      -0.25453132
H        3.28693909       8.29404972       2.87522535       13       0.26723143       0.12486573      -0.22688746
H        7.90176293       6.41005894       2.88505787       14       1.28487539       1.22964442      -0.68714380
H        4.82624650       1.50292418       7.79392186       15      -0.89976680       1.02228296       0.20021823
H        7.98397451       3.63108739       9.78212407       16      -0.09684876       1.50759876       0.93360782
H        4.73511674       8.61111897       0.84656209       17       0.31655681      -0.34474820       0.06468692
H        0.14210845       6.15147751       0.85841026       18       0.15889031       0.23421898       0.02625672
H        3.33208739       1.26346573       9.82546695       19       0.31061199      -0.51625693       0.03060634
H        6.52304440       0.19622896       4.92170514       20      -0.72297651      -0.08448318      -0.14116310
H        6.22341957       5.16546061       5.75310242       21      -0.24462363      -0.01089606      -0.05365779
H        1.58335028       9.59813214       5.76002349       22       1.12951052       0.21375600       0.03207379
H        1.85979012       4.69621587       4.93191128       23       1.68282330      -0.22137752      -0.42213544
H        2.43356787       1.16156518       3.83433740       24      -0.35676023       0.32051268      -0.25804090
H        1.05733033       6.08112694       6.82334308       25       0.10861668       0.07088006       0.24763843
H        5.65967407       8.65752480       6.77236450       26       1.19354582      -1.01115310       1.19633842
H        7.02717761       3.77433472       3.85522705       27       0.52528286       0.19293222       0.32693470
C        7.28012229       0.42650018       8.92724283       28      -2.10028148      -0.70164835       2.63565302
C        5.44130124       5.31332970       1.72870249       29       1.37632704      -0.21601641      -1.31842375
C        0.85876980       9.44588243       1.73944917       30       0.07215263      -0.53271842      -0.15445763
C        2.63091981       4.48027847       8.93319953       31      -1.34689772       1.51181543       0.54915142
C        8.02749200       0.23893081       7.84583377       32       3.11568594       1.62759900      -3.76338005
C        4.68511087       5.20425792       2.87533692       33      -0.13703586      -1.11580634       0.58550656
C        0.02991399       9.56710412       2.89479630       34       1.40546656       0.39941955      -1.68729019
C        3.44585229       4.67300467       7.84382606       35       1.15635872      -0.44133011      -1.80352402
C       -0.41052105       1.41552098       7.44846535       36      -0.25699601      -3.85311508      -1.92551136
C        3.94125884       6.28951052       3.25990686       37      -0.56529844       1.37902594      -0.40794942
C        8.53151929       8.46057315       3.21454790       38      -1.29228139      -0.16324377       1.81303906
C        4.21949181       3.56531125       7.45473398       39      -0.00053833       0.99360150      -1.34543455
C       -0.43108143       2.57710064       8.13273050       40       0.03664984       1.25399649       0.61056864
C        3.95974588       7.51585947       2.51059028       41      -0.59898674      -0.95193583       1.59263372
C        8.59312700       7.25817193       2.51575969       42      -1.71676064      -1.55535960       0.98298734
C        4.15045201       2.35499340       8.12093918       43       2.07836413      -1.91026199      -0.43318087
C        8.00639919       2.73669974       9.24700351       44      -0.49597490      -1.79348540       0.07647848
C        4.77581035       7.66838755       1.41251182       45      -1.24299610       1.35845685      -0.33808747
C        0.14824769       7.10628960       1.39917681       46      -0.82022905      -1.61493683      -0.44434100
C        3.42340359       2.17349803       9.25564576       47      -2.16374731       1.18695843       1.30207515
C        7.25089254       1.61202214       9.63698941       48       0.17860028       2.81149626       1.83299971
C        5.44523613       6.54451189       1.01875058       49       2.24566150      -1.93269658      -1.02848947
C        0.84660333       8.20454941       0.98463133       50       1.06687534       2.70608425       0.87433684
C        2.58644134       3.28187324       9.64951026       51       1.30875385      -0.87808239      -0.40269530
C        5.06254258       1.53159925       3.04708311       52      -1.28598917      -1.42749739       2.09145045
C        7.68318904       6.43000291       7.56794528       53      -2.58682871       0.19874665       0.93848884
C        3.04151227       8.32401013       7.60567126       54       4.68168926       0.91050899       0.73355395
C        0.44072015       3.42587527       3.12067031       55      -1.74571252      -0.86609060      -1.44174230
C        4.51232067       0.73607318       4.24438208       56       0.51125562       0.63978988      -0.83635873
C        8.17182763       5.66378385       6.43394808       57       2.01551342      -0.07029455      -0.64135969
C        3.62032138       9.08675818       6.42937600       58      -1.97338724      -0.27847260       0.46275878
C       -0.11285693       4.17069001       4.26104662       59       1.19920015       0.18000951       0.42191413
C        5.42988001       0.07744498       5.06744709       60       0.04646739      -0.49632800       1.38432646
C        7.27963810       5.04627241       5.55873965       61       0.06095842      -0.02643821       0.26147693
C        2.68588637       9.75008139       5.59991114       62      -0.50389254       0.35920209      -1.17774844
C        0.83726203       4.79192844       5.10190826       63      -2.73327637       0.81944323       1.53973866
C        3.13116417       0.67690945       4.48417692       64       0.31806979      -1.40460658       1.63984919
C        0.35934165       5.53721280       6.20562496       65      -0.94675493      -0.40700588      -0.94456869
C        4.96229943       9.15519910       6.18979431       66       0.41662756       1.87818062      -2.63699818
C        7.75731465       4.28037849       4.51441903       67      -0.87778366      -0.31348884      -0.81595027
N        7.49581560       1.48657727       0.05777779       68       0.08251014      -1.29490232      -2.10499024
N        5.27375216       6.32460410      10.67412191       69      -0.90333319       2.28359818      -0.31641969
N        0.62875852       8.43606955      10.67244942       70       0.36758870      -1.82555449      -1.87831378
N        2.85269529       3.49418823       0.00897479       71      -0.38734883      -0.36989927       0.84280455
N        5.85003349       0.24874209      10.63575944       72       0.73395199       0.64501679       0.27231669
N        6.85414470       5.13962511       0.01398768       73       0.43496782      -1.72096252       0.91393614
N        2.25161422       9.62734184       0.01133106       74       0.11815664       0.74009156       1.24393380
N        1.26771865       4.73075463      10.67281752       75      -0.09839734       0.14391345      -1.14018452
N        6.40727400       9.45885930       9.61842174       76      -0.87202090      -1.70495665      -0.35647291
N        6.35003282       4.44495772       1.07369123       77      -1.26140666       1.54139721       0.17811581
N        1.78233441       0.43093145       1.11544163       78      -0.87146842       0.00288367       0.00181033
N        1.73669001       5.34960028       9.55901912       79       0.62518483      -0.55884886       0.62642193
O        6.30644169       1.74327665       3.08821416       80       0.80843949       0.28757155      -0.43942001
O        6.35869149       6.65224939       7.59228695       81       1.94263482      -0.21390012      -0.22082965
O        1.83506818       8.14623583       7.61919313       82      -3.71769094      -0.71996480      -0.04291375
O        1.67820295       3.16959862       3.07664067       83       1.15155065       0.28482226       0.44419834
O        4.28229987       1.89699310       2.13608581       84       0.53279865       0.41101345      -0.70724177
O       -0.84387339       6.78018276       8.55385541       85       0.33496034       0.26950127       0.02958244
O        3.80160122       7.97762373       8.60819161       86      -0.89436638       0.15319274      -0.91171348
O        8.90616769       3.00677629       2.17224510       87       0.44394574       0.31894144       0.42161503
88
Lattice="9.23213013 0.0 0.0 4.908688698559445e-06 9.837255869998776 0.0 -1.104148142601199 4.777223433229213e-06 10.686104741469574" Properties=species:S:1:pos:R:3:spacegroup_kinds:I:1:forces:R:3 spacegroup="P 1" unit_cell=conventional occupancy="_JSON {\"0\": {\"Zn\": 1}, \"1\": {\"Zn\": 1}, \"2\": {\"Zn\": 1}, \"3\": {\"Zn\": 1}, \"4\": {\"H\": 1}, \"5\": {\"H\": 1}, \"6\": {\"H\": 1}, \"7\": {\"H\": 1}, \"8\": {\"H\": 1}, \"9\": {\"H\": 1}, \"10\": {\"H\": 1}, \"11\": {\"H\": 1}, \"12\": {\"H\": 1}, \"13\": {\"H\": 1}, \"14\": {\"H\": 1}, \"15\": {\"H\": 1}, \"16\": {\"H\": 1}, \"17\": {\"H\": 1}, \"18\": {\"H\": 1}, \"19\": {\"H\": 1}, \"20\": {\"H\": 1}, \"21\": {\"H\": 1}, \"22\": {\"H\": 1}, \"23\": {\"H\": 1}, \"24\": {\"H\": 1}, \"25\": {\"H\": 1}, \"26\": {\"H\": 1}, \"27\": {\"H\": 1}, \"28\": {\"C\": 1}, \"29\": {\"C\": 1}, \"30\": {\"C\": 1}, \"31\": {\"C\": 1}, \"32\": {\"C\": 1}, \"33\": {\"C\": 1}, \"34\": {\"C\": 1}, \"35\": {\"C\": 1}, \"36\": {\"C\": 1}, \"37\": {\"C\": 1}, \"38\": {\"C\": 1}, \"39\": {\"C\": 1}, \"40\": {\"C\": 1}, \"41\": {\"C\": 1}, \"42\": {\"C\": 1}, \"43\": {\"C\": 1}, \"44\": {\"C\": 1}, \"45\": {\"C\": 1}, \"46\": {\"C\": 1}, \"47\": {\"C\": 1}, \"48\": {\"C\": 1}, \"49\": {\"C\": 1}, \"50\": {\"C\": 1}, \"51\": {\"C\": 1}, \"52\": {\"C\": 1}, \"53\": {\"C\": 1}, \"54\": {\"C\": 1}, \"55\": {\"C\": 1}, \"56\": {\"C\": 1}, \"57\": {\"C\": 1}, \"58\": {\"C\": 1}, \"59\": {\"C\": 1}, \"60\": {\"C\": 1}, \"61\": {\"C\": 1}, \"62\": {\"C\": 1}, \"63\": {\"C\": 1}, \"64\": {\"C\": 1}, \"65\": {\"C\": 1}, \"66\": {\"C\": 1}, \"67\": {\"C\": 1}, \"68\": {\"N\": 1}, \"69\": {\"N\": 1}, \"70\": {\"N\": 1}, \"71\": {\"N\": 1}, \"72\": {\"N\": 1}, \"73\": {\"N\": 1}, \"74\": {\"N\": 1}, \"75\": {\"N\": 1}, \"76\": {\"N\": 1}, \"77\": {\"N\": 1}, \"78\": {\"N\": 1}, \"79\": {\"N\": 1}, \"80\": {\"O\": 1}, \"81\": {\"O\": 1}, \"82\": {\"O\": 1}, \"83\": {\"O\": 1}, \"84\": {\"O\": 1}, \"85\": {\"O\": 1}, \"86\": {\"O\": 1}, \"87\": {\"O\": 1}}" energy=-612.5333862304688 free_energy=-612.5333862304688 stress="-0.009349402971565723 0.0006768342573195696 -0.0021006769966334105 0.0006768342573195696 -0.010602169670164585 -0.006379468832165003 -0.0021006769966334105 -0.006379468832165003 -0.007600369863212109" pbc="T T T"
Zn       7.02824686       2.65749715       1.50003281        0       0.26274204       1.14292920       0.33262938
Zn       5.68862543       7.65155654       9.21524177        1      -0.01108217      -0.55470771      -0.35968381
Zn       1.06863965       7.14817675       9.16560628        2      -0.23578247       0.50038421       0.24535516
Zn       2.45486489       2.28922472       1.47286871        3      -0.41941729      -0.39535776       0.04482204
H        8.03871974       9.16785599       7.19212917        4      -0.03442047       0.12773094       0.36885494
H        4.62836767       4.27105793       3.37883886        5      -0.13553299      -0.47198850       0.53148502
H       -0.04011019       0.68121720       3.38924320        6      -0.24877195      -0.28524876       0.18649249
H        3.50560899       5.58895317       7.22222004        7       0.01578044      -0.89992642       0.91450632
H        0.20290480       1.31428650       6.54759414        8       0.17348665       0.01039759      -0.24672547
H        3.24441751       6.20502847       4.10322198        9       0.01552995       0.00689588       0.04329762
H        7.87388834       8.49709754       4.08012846       10       0.07896470       0.01425864      -0.25664520
H        4.81401785       3.60657817       6.50475385       11      -0.30734205       0.21160914       0.63373756
H        0.16900989       3.41980082       7.78791453       12      -0.37384814      -0.47608715       0.16225347
H        3.27806593       8.29163678       2.84784046       13       0.27882233       0.30859596      -0.05691341
H        7.87628121       6.40485993       2.88095467       14       1.29044747       1.03381956      -0.64712858
H        4.82196459       1.48126211       7.79372936       15      -1.23035574       1.56238317       0.17084864
H        7.97066863       3.61574668       9.75516390       16      -0.02684008       2.49397302       1.45174789
H        4.72268498       8.58565014       0.82749254       17       0.30475497      -0.25409842       0.06807796
H        0.13485077       6.13630480       0.83006763       18       0.15268004       0.99368542       0.29664826
H        3.31937619       1.25087313       9.81549488       19       0.28964829      -1.29935646       0.50775415
H        6.51222992       0.18924074       4.91824001       20      -0.51231384      -0.10014199      -0.21407580
H        6.20539465       5.17127138       5.75929867       21       0.62339771      -0.11867525      -0.28686556
H        1.56104473       9.56847579       5.73986786       22       1.12038147       0.27309737      -0.07366543
H        1.84958743       4.69730541       4.94590308       23       1.44555640      -0.20658797      -0.38593850
H        2.45417099       1.16529387       3.81359362       24      -0.58041507       0.47297210      -0.42703056
H        1.03785834       6.07054372       6.80168747       25       0.63560337       0.49549779       0.76534224