117
Lattice="12.57918404 0.0 0.0 -6.1926164266173425 10.83356290671397 0.0 -0.10491399394354366 -4.274852432810845 26.68245872460057" Properties=species:S:1:pos:R:3:spacegroup_kinds:I:1:forces:R:3 spacegroup="P 1" unit_cell=conventional occupancy="_JSON {\"0\": {\"Al\": 1}, \"1\": {\"Al\": 1}, \"2\": {\"Al\": 1}, \"3\": {\"Al\": 1}, \"4\": {\"Al\": 1}, \"5\": {\"Al\": 1}, \"6\": {\"H\": 1}, \"7\": {\"H\": 1}, \"8\": {\"H\": 1}, \"9\": {\"H\": 1}, \"10\": {\"H\": 1}, \"11\": {\"H\": 1}, \"12\": {\"H\": 1}, \"13\": {\"H\": 1}, \"14\": {\"H\": 1}, \"15\": {\"H\": 1}, \"16\": {\"H\": 1}, \"17\": {\"H\": 1}, \"18\": {\"H\": 1}, \"19\": {\"H\": 1}, \"20\": {\"H\": 1}, \"21\": {\"H\": 1}, \"22\": {\"H\": 1}, \"23\": {\"H\": 1}, \"24\": {\"H\": 1}, \"25\": {\"H\": 1}, \"26\": {\"C\": 1}, \"27\": {\"C\": 1}, \"28\": {\"C\": 1}, \"29\": {\"C\": 1}, \"30\": {\"C\": 1}, \"31\": {\"C\": 1}, \"32\": {\"C\": 1}, \"33\": {\"C\": 1}, \"34\": {\"C\": 1}, \"35\": {\"C\": 1}, \"36\": {\"C\": 1}, \"37\": {\"C\": 1}, \"38\": {\"C\": 1}, \"39\": {\"C\": 1}, \"40\": {\"C\": 1}, \"41\": {\"C\": 1}, \"42\": {\"C\": 1}, \"43\": {\"C\": 1}, \"44\": {\"C\": 1}, \"45\": {\"C\": 1}, \"46\": {\"C\": 1}, \"47\": {\"C\": 1}, \"48\": {\"C\": 1}, \"49\": {\"C\": 1}, \"50\": {\"C\": 1}, \"51\": {\"C\": 1}, \"52\": {\"C\": 1}, \"53\": {\"C\": 1}, \"54\": {\"C\": 1}, \"55\": {\"C\": 1}, \"56\": {\"C\": 1}, \"57\": {\"C\": 1}, \"58\": {\"C\": 1}, \"59\": {\"C\": 1}, \"60\": {\"C\": 1}, \"61\": {\"C\": 1}, \"62\": {\"C\": 1}, \"63\": {\"C\": 1}, \"64\": {\"C\": 1}, \"65\": {\"C\": 1}, \"66\": {\"C\": 1}, \"67\": {\"C\": 1}, \"68\": {\"C\": 1}, \"69\": {\"C\": 1}, \"70\": {\"C\": 1}, \"71\": {\"C\": 1}, \"72\": {\"C\": 1}, \"73\": {\"C\": 1}, \"74\": {\"C\": 1}, \"75\": {\"C\": 1}, \"76\": {\"C\": 1}, \"77\": {\"C\": 1}, \"78\": {\"C\": 1}, \"79\": {\"C\": 1}, \"80\": {\"C\": 1}, \"81\": {\"C\": 1}, \"82\": {\"C\": 1}, \"83\": {\"C\": 1}, \"84\": {\"C\": 1}, \"85\": {\"C\": 1}, \"86\": {\"C\": 1}, \"87\": {\"C\": 1}, \"88\": {\"C\": 1}, \"89\": {\"O\": 1}, \"90\": {\"O\": 1}, \"91\": {\"O\": 1}, \"92\": {\"O\": 1}, \"93\": {\"O\": 1}, \"94\": {\"O\": 1}, \"95\": {\"O\": 1}, \"96\": {\"O\": 1}, \"97\": {\"O\": 1}, \"98\": {\"O\": 1}, \"99\": {\"O\": 1}, \"100\": {\"O\": 1}, \"101\": {\"O\": 1}, \"102\": {\"O\": 1}, \"103\": {\"O\": 1}, \"104\": {\"O\": 1}, \"105\": {\"O\": 1}, \"106\": {\"O\": 1}, \"107\": {\"O\": 1}, \"108\": {\"O\": 1}, \"109\": {\"O\": 1}, \"110\": {\"O\": 1}, \"111\": {\"O\": 1}, \"112\": {\"O\": 1}, \"113\": {\"O\": 1}, \"114\": {\"O\": 1}, \"115\": {\"O\": 1}, \"116\": {\"O\": 1}}" energy=-857.6286010742188 free_energy=-857.6286010742188 stress="-0.0005668500089086592 0.0009854024974629283 -0.0001192027484648861 0.0009854024974629283 -0.001335926353931427 0.00017292269330937415 -0.0001192027484648861 0.00017292269330937415 -0.0007564470870420337" pbc="T T T"
Al       0.11608499       6.74581652      13.00810556        0      -0.02256381       0.95342857       0.06045928
Al       7.86198427      -1.31333402      13.38034303        1       1.00201809       0.60770255      -0.12677017
Al       4.84303967      -1.24528685      13.39153469        2      -0.53222734       0.36682886       0.05978928
Al       6.41383060       9.03716842       0.53934971        3       0.07491241      -0.90180337      -0.36897734
Al       7.89871257       6.25217024       0.08902089        4       1.71267200      -1.17187488      -0.52066368
Al       4.91915856       6.20669821       0.03153675        5      -0.13920915      -0.34871218      -0.24251623
H        8.05141578       3.58296897       8.45106069        6       0.26692659       0.18913409       0.11722678
H        4.92583524       6.91564257      21.47241018        7       0.46525583       0.59627104       0.47261405
H        2.53475487       3.45046482      20.59553692        8       0.41248113       0.78881812      -0.30243570
H        2.33217577       4.22417377      18.22463780        9       0.06228808       0.09138844      -0.05217836
H        8.07749040       4.28346930       6.07167127       10      -0.33155650      -0.33728382       0.05480529
H        4.81372806       1.54129930       5.24786488       11       0.53215408       0.34627968       0.50481498
H       -4.11516243       4.46642614      18.21903950       12       0.26361245       0.38429791       0.68112546
H        8.17672110       3.71459994      20.60222038       13      -0.05583394      -0.02490437      -0.02596277
H       -2.33078640       7.22650939      21.99220387       14      -0.01086413      -0.01404709      -0.11444653
H        4.15492492      -2.84871545      19.63963649       15       0.13910541       0.29168186      -0.05343084
H        4.81737248       0.86636356       7.65179250       16      -0.25671786      -0.28591248       0.09404358
H       -0.24346480      -1.21322270      16.99001239       17       0.46572489      -0.25777215       0.52370203
H        0.69965158      -1.05148255      18.48459906       18       0.18348439       0.60018760       0.86262131
H        1.37836810      -1.93680892      17.12743966       19      -0.03226482       0.03074351       0.08691632
H       -5.68934100       7.28442862      18.83191750       20       0.72827893      -0.48756373       0.47743332
H        5.95156395       7.11079003      17.34431058       21       0.49454534       0.69128162       0.51798320
H       10.41801825      -2.24542749      18.33004249       22      -0.31301802       0.59572780      -0.33267552
H       11.34622139      -2.15402238      19.84250628       23       0.06479675       0.43240726       0.25523058
H       -0.02154705       4.70036756      11.89170978       24      -0.06490508      -0.17623122      -0.64177030
H        0.21345412       0.49565119       0.11803967       25      -0.09333447      -0.28624105       0.29651254
C        2.16047580       7.93624672      11.11494314       26       0.71807384       1.35022306       0.43610978
C        5.53360014       2.00031104       5.96899505       27      -0.68750000      -0.36235046      -1.08077300
C        5.51387772       1.60425167       7.29018484       28       0.71623725       0.71127874       0.09779032
C        6.44177759       2.18702034       8.20503967       29      -0.37117743      -0.24095580      -1.04508257
C        6.45383332       2.96715355       5.48286333       30      -0.32721299      -0.48975354      -0.15776835
C        6.46113402       3.32417781       4.09873172       31      -0.06226384       0.14112529       0.60780597
C        6.43712154       1.70851557       9.50872466       32       0.01987107       0.23796362       0.62687540
C        6.42456248       3.71401777       2.94254497       33       0.21472621      -0.05268241      -0.09701797
C       -3.51589927       7.83352905       3.60484976       34      -0.16069551      -0.24949074      -0.07210812
C       -3.28252072       7.78041769       4.80865430       35      -0.01412630       0.09978437       0.03264028
C       -3.08265545       7.78800780       6.13060508       36      -0.08542398      -0.03248901      -0.25888324
C        6.41105931       0.55071044      11.87944296       37       0.22755094       1.19059074      -0.35644048
C       -2.95923118       7.81003456       7.35583325       38       0.08492327      -0.01473335       0.34795797
C       -2.77543244       7.84613630       8.68045964       39       0.27297673       0.02863531       0.64944303
C       -2.52749591       7.89054013       9.89047204       40      -0.66984159       0.00995055      -0.87492496
C        3.61484389       7.79241137       3.46780804       41       0.29967529       0.08338477      -0.19202274
C        3.38862748       7.80908535       4.67121870       42      -0.19155484       0.00892601       0.54469931
C        3.13568669       7.82339383       5.99205972       43       0.21475686      -0.02150463      -0.53162277
C        2.99631618       7.83109725       7.21528482       44      -0.27115539      -0.02274440       0.58843201
C        2.76366344       7.83876837       8.54071044       45       0.23465535       0.10529055      -0.28360012
C        2.61566452       7.89391169       9.75930963       46      -0.06999718      -0.06269008      -0.33439028
C        6.33429079       0.22702672      23.30159484       47       0.00195127       0.02597615       0.40053660
C       -2.08558992       7.95333647      11.24019973       48       0.45398507       2.33117938       0.94932401
C        6.33026078       0.17485646      22.07486847       49       0.14408402      -0.03074050      -0.28359470
C        6.37796732       0.14565745      20.73340595       50      -0.11093093       0.02369112       0.19223878
C        6.38091481       0.15927153      19.49829396       51      -0.07548779      -0.02546974      -0.13857594
C        6.35800938       0.14571956      18.15658695       52       0.13571393       0.00800526       0.26557440
C        6.38676408       0.11751559      16.92950566       53       0.03722908      -0.22314781       0.03974494
C       -2.56995584       7.01555330      16.26638221       54       0.02190802       0.17005695      -0.55699390
C       -3.72197896       5.07484368      19.06957809       55      -0.12465426      -0.16866279      -0.92312163
C       -3.89056955       4.65159322      20.38726133       56      -0.19664319      -0.31830794      -0.86628741
C       -2.70958504       6.63829231      21.15268752       57      -0.42384267      -0.67849922       0.65736061
C       -2.55644055       7.06113289      19.85472734       58       0.01258063      -0.13369453      -0.69220132
C        2.40712783       7.31905555      14.86413553       59       0.64402449       1.34498048      -0.18365173
C       -3.03819779       6.28106498      18.76425013       60      -0.09506719      -0.09978978       0.01229364
C       -3.38558329       5.40242320      21.44044134       61       0.66123593       1.13865769      -0.21713546
C       -3.54246837       4.94801327      22.75154379       62      -0.04611525      -0.00392628       0.41496077
C       -2.81533869       6.69176111      17.40703434       63      -0.29917991      -0.49052644       1.57795072
C       -3.71394943       4.54254955      23.88497831       64       0.13292845       0.20467891      -0.32721499
C        2.99579450       6.81850157      16.07160479       65       0.02903080       0.34322250      -0.32735148
C        4.26319657       6.81359719      19.42471304       66      -0.08541539      -0.34976301       0.13498203
C        4.37372582       6.37235670      20.73929852       67      -0.53894317      -0.75877273      -0.20304947
C        3.02655485       4.39499937      20.24904491       68      -0.33843124      -0.65782177       0.19795203
C        2.91546104       4.81486869      18.93355770       69      -0.23571244      -0.47953886       0.34047258
C        6.38497509      -0.17598803      15.51921330       70       1.03502834       0.79991299       0.55443263
C        3.50551156       6.01669441      18.51859589       71       0.20745528       0.21444024      -0.16052088
C        3.75168266       5.17853196      21.17257169       72      -0.13530761      -0.41743970       0.18952435
C        3.82902458       4.73385858      22.52694335       73       0.08985734       0.55415583      -0.63814664
C        3.28043408       6.44172196      17.19109922       74       0.03719664       0.06333865       0.31004056
C        3.90898471       4.43105222      23.70156721       75       0.53013963       0.00035455       0.38608810
C       -4.06472705       7.80357416       2.27033104       76      -0.09349637       1.15150166       0.43912357
C        6.44959922       4.40930341       1.69037949       77       1.80734015       1.32527399      -0.77907741
C        4.17144973       7.74620917       2.14057330       78       0.72899258       2.14515829       0.65688664
C       -4.08536282       4.07218859      25.17766824       79      -1.22881413       2.79585314       0.24721158
C        6.30038701       0.60057832      24.69456562       80       2.37190270       0.58484185       0.27995056
C       -2.03754383       7.40537908      15.00125205       81      -0.21100688       1.97622585      -0.52693629
C        4.33785044       4.07024874      25.03450093       82       0.74095792       2.28464770      -0.06732205
C        6.37685082       1.32252879      10.65990451       83       0.48247483      -0.53211069       0.27457210
C        7.35750040       3.15496053       7.74271554       84      -0.48235083      -0.40120792       0.10594797
C        7.34893503       3.52317207       6.41151878       85       0.82952070       0.93553805      -0.47110367
C       11.12247400      -2.75649236      18.96755070       86       0.01629850      -0.49585077       0.03004880
C        6.22194559       7.81858090      18.18627239       87      -1.05682528      -0.55995142      -0.79410332
C        0.46118044      -1.73036641      17.69776021       88      -0.51388735      -0.23801097      -1.81157923
O       -1.30561930       7.05256726      11.62319512       89       0.33153573      -0.95851076       0.47781628
O        7.53494073      -0.31576320      14.97492068       90      -0.19721258      -0.30303520       0.02001351
O        5.25721690      -0.21670092      14.97015996       91      -0.99778152      -0.43237290      -0.75093842
O        3.79082333      -2.24353228      14.53734926       92       0.12253445      -1.39802980       0.68745172
O        0.15370818       8.64265387      13.24414625       93      -0.35313386      -0.38735965      -0.02055963
O        4.95130383       8.70752140       1.80611913       94      -0.31248227      -0.48587668       0.30783713
O       -4.95650881       8.67892390       2.04015126       95      -0.17570284      -0.11315494       0.03761840
O       -3.60447488       6.95189965       1.45588876       96       0.15189615      -0.65839404      -0.46641991
O        7.62988265       4.81674183       1.24097897       97      -1.54214120      -1.04860628       1.06217802
O        5.35419834       4.74333722       1.14335669       98      -0.51104814      -0.33798760       0.09138888
O        3.85264272       6.76552427       1.43017981       99      -0.42388159      -1.50972271      -0.94819033
O        1.38097275       7.03297125      11.48586936      100      -0.79577392      -0.92300224       0.51206756
O        5.12480671       4.89882399      25.64321764      101      -0.60906798      -0.77882707      -0.51838332
O       -4.76838057       4.90907824      25.89476002      102       0.26037380      -0.63703817      -0.16919385
O       -3.76730037       2.90916637      25.47598385      103       0.32514200      -2.16645718       0.86318219
O        7.45673236       0.80475607      25.27844700      104      -1.31719565      -0.38680297      -0.80140936
O        5.17949066       0.83879906      25.20718722      105      -1.17632949      -0.02848883       0.37542894
O        3.89290362       2.98706308      25.48843834      106      -0.33524281      -1.39591646       0.67922568
O        6.43956998       7.14610499       0.19217707      107      -1.13648319       0.60185468       0.12197032
O        2.57010736       8.94834267      11.82257027      108      -0.33088842      -0.65506464      -0.45093617
O        7.54306231       0.26149849      12.38566742      109       0.15843172      -0.33067337      -0.05663010
O        5.27086330       0.27425517      12.34860295      110      -0.82585406      -0.66750300       0.50707936
O        3.83912530      -1.76848581      11.91743941      111      -0.03875461      -1.62676787      -1.15447474
O       -1.17442647       6.66632358      14.47292506      112       0.46367905      -0.61020851      -0.33202696
O        1.52316242       6.60882049      14.33355330      113      -0.70875341      -0.55001122      -0.42258143
O        2.78138286       8.50667051      14.43957306      114      -0.13423584      -1.21694148       0.63604361
O        0.07394220       5.01482382      12.78969950      115       0.04326150      -0.49077013       0.39112937
O        0.01080938      -0.08611601       0.87810331      116       0.09712529       1.04561961      -0.29850745
117
Lattice="12.57918404 0.0 0.0 -6.1926164266173425 10.83356290671397 0.0 -0.10491399394354366 -4.274852432810845 26.68245872460057" Properties=species:S:1:pos:R:3:spacegroup_kinds:I:1:forces:R:3 spacegroup="P 1" unit_cell=conventional occupancy="_JSON {\"0\": {\"Al\": 1}, \"1\": {\"Al\": 1}, \"2\": {\"Al\": 1}, \"3\": {\"Al\": 1}, \"4\": {\"Al\": 1}, \"5\": {\"Al\": 1}, \"6\": {\"H\": 1}, \"7\": {\"H\": 1}, \"8\": {\"H\": 1}, \"9\": {\"H\": 1}, \"10\": {\"H\": 1}, \"11\": {\"H\": 1}, \"12\": {\"H\": 1}, \"13\": {\"H\": 1}, \"14\": {\"H\": 1}, \"15\": {\"H\": 1}, \"16\": {\"H\": 1}, \"17\": {\"H\": 1}, \"18\": {\"H\": 1}, \"19\": {\"H\": 1}, \"20\": {\"H\": 1}, \"21\": {\"H\": 1}, \"22\": {\"H\": 1}, \"23\": {\"H\": 1}, \"24\": {\"H\": 1}, \"25\": {\"H\": 1}, \"26\": {\"C\": 1}, \"27\": {\"C\": 1}, \"28\": {\"C\": 1}, \"29\": {\"C\": 1}, \"30\": {\"C\": 1}, \"31\": {\"C\": 1}, \"32\": {\"C\": 1}, \"33\": {\"C\": 1}, \"34\": {\"C\": 1}, \"35\": {\"C\": 1}, \"36\": {\"C\": 1}, \"37\": {\"C\": 1}, \"38\": {\"C\": 1}, \"39\": {\"C\": 1}, \"40\": {\"C\": 1}, \"41\": {\"C\": 1}, \"42\": {\"C\": 1}, \"43\": {\"C\": 1}, \"44\": {\"C\": 1}, \"45\": {\"C\": 1}, \"46\": {\"C\": 1}, \"47\": {\"C\": 1}, \"48\": {\"C\": 1}, \"49\": {\"C\": 1}, \"50\": {\"C\": 1}, \"51\": {\"C\": 1}, \"52\": {\"C\": 1}, \"53\": {\"C\": 1}, \"54\": {\"C\": 1}, \"55\": {\"C\": 1}, \"56\": {\"C\": 1}, \"57\": {\"C\": 1}, \"58\": {\"C\": 1}, \"59\": {\"C\": 1}, \"60\": {\"C\": 1}, \"61\": {\"C\": 1}, \"62\": {\"C\": 1}, \"63\": {\"C\": 1}, \"64\": {\"C\": 1}, \"65\": {\"C\": 1}, \"66\": {\"C\": 1}, \"67\": {\"C\": 1}, \"68\": {\"C\": 1}, \"69\": {\"C\": 1}, \"70\": {\"C\": 1}, \"71\": {\"C\": 1}, \"72\": {\"C\": 1}, \"73\": {\"C\": 1}, \"74\": {\"C\": 1}, \"75\": {\"C\": 1}, \"76\": {\"C\": 1}, \"77\": {\"C\": 1}, \"78\": {\"C\": 1}, \"79\": {\"C\": 1}, \"80\": {\"C\": 1}, \"81\": {\"C\": 1}, \"82\": {\"C\": 1}, \"83\": {\"C\": 1}, \"84\": {\"C\": 1}, \"85\": {\"C\": 1}, \"86\": {\"C\": 1}, \"87\": {\"C\": 1}, \"88\": {\"C\": 1}, \"89\": {\"O\": 1}, \"90\": {\"O\": 1}, \"91\": {\"O\": 1}, \"92\": {\"O\": 1}, \"93\": {\"O\": 1}, \"94\": {\"O\": 1}, \"95\": {\"O\": 1}, \"96\": {\"O\": 1}, \"97\": {\"O\": 1}, \"98\": {\"O\": 1}, \"99\": {\"O\": 1}, \"100\": {\"O\": 1}, \"101\": {\"O\": 1}, \"102\": {\"O\": 1}, \"103\": {\"O\": 1}, \"104\": {\"O\": 1}, \"105\": {\"O\": 1}, \"106\": {\"O\": 1}, \"107\": {\"O\": 1}, \"108\": {\"O\": 1}, \"109\": {\"O\": 1}, \"110\": {\"O\": 1}, \"111\": {\"O\": 1}, \"112\": {\"O\": 1}, \"113\": {\"O\": 1}, \"114\": {\"O\": 1}, \"115\": {\"O\": 1}, \"116\": {\"O\": 1}}" energy=-856.0201416015625 free_energy=-856.0201416015625 stress="-0.0020890114828944206 0.0008848867728374898 -0.0006205931422300637 0.0008848867728374898 -0.0027401430997997522 -0.0006670134607702494 -0.0006205931422300637 -0.0006670134607702494 -0.0020626066252589226" pbc="T T T"
Al       0.14065842       6.72315236      12.98024982        0       0.06601197       2.16265154       0.19665468
Al       7.85469749      -1.29606152      13.35473692        1       1.86439681       1.08545852      -0.00559528
Al       4.86761332      -1.26293748      13.36192715        2      -0.53098702       0.98534453       0.00847869
Al       6.44257699       9.00842805       0.50950519        3      -0.07010709       0.24295866      -0.25524962
Al       7.87016986       6.22542848       0.05936697        4       3.01304030      -0.56231713      -0.53101808
Al       4.94030971       6.17708035       0.00201692        5      -0.32820010       0.95810056      -0.20487879
H        8.05569389       3.56768952       8.42221414        6       0.69917107       0.45359802       0.47081780
H        4.95578890       6.89038322      21.44249184        7       1.06003475       1.27162302       1.14189386
H        2.50476805       3.47928630      20.62231449        8       0.99978381       1.58462930      -0.86683178
H        2.30286989       4.25226720      18.23342434        9       0.31836635       0.29598743      -0.06767058
H        8.09571577       4.25368495       6.04328964       10       0.44105542       0.55530202      -0.29057819
H        4.83970554       1.57016694       5.27778700       11      -0.04567904       0.04230791      -0.24927860
H       -4.14430690       4.49450554      18.23058962       12       0.35749936       0.35555097       0.28131017
H        8.14822166       3.74072933      20.62627453       13       0.48519242       0.73337531      -0.50101709
H       -2.32624457       7.20059453      21.96379263       14       0.52405447       0.87236512       0.75726318
H        4.14709734      -2.87573884      19.61219491       15       1.47624350       2.66622305      -0.56638277
H        4.78739219       0.88841479       7.67921942       16       0.89409566       0.87119865      -0.74945015
H       -0.23113985      -1.18852096      17.00788969       17       0.61507761      -0.61489773       0.39949596
H        0.68528966      -1.05100391      18.46165114       18       0.30668026       0.27244863       0.71691138
H        1.38694044      -1.90819718      17.11617232       19       0.82271719      -0.27057210      -0.46444377
H       -5.67522738       7.28246157      18.80520923       20       0.71547818      -0.52116698       0.52761042
H        5.92865729       7.13947113      17.37372976       21       0.43332735       0.00877396      -0.41280353
H       10.44047317      -2.22771602      18.30393548       22      -0.31154448       0.70475483      -0.38759482
H       11.36622116      -2.15903307      19.81527182       23       0.20669425       0.92095923       0.70228910
H        0.00824954       4.73014022      11.90703536       24      -0.28070176      -1.04621601      -2.73325658
H        0.24267239       0.49417047       0.08875993       25      -0.00448324      -0.03005096      -0.04110119
C        2.18869147       7.96504201      11.08971882       26       0.82000160       1.53703690       0.58324754
C        5.56334281       2.02905489       5.94632351       27      -1.00904632      -1.05082345      -0.38580635
C        5.54106314       1.63235331       7.26089453       28      -0.55103171      -0.58128923       1.19766021
C        6.47135319       2.18872816       8.17857397       29      -0.74420750      -0.45550427      -0.99272645
C        6.48323219       2.94098908       5.45598451       30       0.65216768       1.03331804      -0.55025935
C        6.48144127       3.32655677       4.06898461       31      -0.10694236      -0.38132489       1.60120726
C        6.41473161       1.70092639       9.47918600       32       0.23742308       0.19783783       1.11305082
C        6.39576884       3.69567571       2.91735707       33       0.39557391       0.70306802      -1.36580348
C       -3.49424191       7.85149290       3.57513189       34      -0.22760700      -0.36704430       0.22184137
C       -3.25354613       7.75364694       4.77871521       35      -0.10821481       0.20582226      -0.35232931
C       -3.06346671       7.75801003       6.10061481       36      -0.11654217      -0.05514264      -0.39096206
C        6.40723994       0.57432278      11.85344147       37       2.65630627       1.00629461      -0.20572835
C       -2.97025347       7.78004377       7.32593429       38       0.18713334      -0.04403057       0.63246709
C       -2.78080084       7.81634149       8.65168976       39       0.13041753       0.00996267       0.29251757
C       -2.54789784       7.86127501       9.86060179       40      -0.38122010       0.27949911       0.07058716
C        3.62092674       7.76535043       3.43902428       41       0.11910750       0.46049893      -0.08028555
C        3.40899475       7.78725061       4.64141238       42      -0.29021680      -0.02174909       0.95427507
C        3.15680666       7.79341335       5.96206545       43       0.10065425      -0.02899103      -0.21566772
C        2.98434645       7.80208289       7.18550746       44      -0.08303709      -0.04767210       0.22778893
C        2.77520775       7.81206435       8.51290989       45       0.10293832       0.24747527       0.38977575
C        2.64219037       7.91346971       9.73878140       46       0.07640499      -0.17409222      -1.21898687
C        6.32733433       0.20033892      23.27264284       47       0.12220752       0.35461870       0.99574143
C       -2.07714421       7.98285797      11.21605415       48       0.80531859       1.45535660       0.52734387
C        6.32567893       0.14627673      22.04565351       49       0.09505488      -0.03546531      -0.28473842
C        6.35856345       0.11569280      20.70340630       50      -0.10331194       0.00795116       0.20519398
C        6.35514643       0.12944394      19.46829562       51      -0.05116749      -0.05182184      -0.12276816
C        6.34071739       0.11573040      18.12661860       52       0.20155990       0.01159360       0.18646175
C        6.41283544       0.09297567      16.90017737       53      -0.16483526      -0.02362846       0.52470130
C       -2.54313898       7.04242444      16.23920465       54      -0.11929791       0.10287591      -0.31473389
C       -3.69713228       5.10397781      19.04054490       55      -0.37576708      -0.32476348      -0.42323640
C       -3.86849691       4.67419103      20.35734831       56      -0.48422858      -0.54720926      -0.17284462
C       -2.68108633       6.66680818      21.12361780       57      -0.94577551      -1.62750387       0.08414283
C       -2.52669419       7.09037691      19.82501936       58      -1.27777946      -2.44360209      -0.12727407
C        2.41723747       7.33939448      14.85462439       59       1.30377579       2.32539201      -0.66746831
C       -3.01203397       6.31068847      18.73635333       60      -0.17799263      -0.38107294       0.05574816
C       -3.35838058       5.43192118      21.41984348       61       0.30122676       0.40752521      -0.40148413
C       -3.55288505       4.92380029      22.72161583       62       0.11383882       0.35876244       0.47161528
C       -2.79532800       6.70519463      17.37720584       63      -0.18711151      -0.26336235       1.28414845
C       -3.74385925       4.51260553      23.85605657       64       0.49422267       0.92978722      -1.74615335
C        3.02531946       6.84741272      16.04469173       65       0.29890317      -0.19558240       0.88115537
C        4.29300450       6.84278120      19.39753626       66      -0.22436933      -0.53646773      -0.06527223
C        4.40270935       6.40141806      20.71014673       67      -1.05756021      -1.46043718      -0.66797900
C        3.05476282       4.42480164      20.22019572       68      -0.97766095      -1.33763087       0.83776569
C        2.93891260       4.84471035      18.90711479       69      -0.66275793      -0.99869478       0.45444828
C        6.37446818      -0.14821442      15.49242669       70       4.14979792       0.43359718       0.70770788
C        3.53286354       6.03456650      18.48938143       71       0.43927598       0.28497636       0.08403220
C        3.77740558       5.20796427      21.14306858       72      -0.17731597      -0.93287981       0.47274423
C        3.83838644       4.70895796      22.49758086       73       0.10131645       1.09721065      -1.23245597
C        3.30970410       6.42491331      17.16114816       74      -0.23876217       0.83503902      -0.93366528
C        3.88029075       4.40600561      23.67263107       75       0.69100279       0.38669813       0.62772471
C       -4.06854197       7.82545031       2.24471843       76       1.33505607       0.22857952       0.30989021
C        6.42902330       4.42994692       1.66837793       77       4.53989363       0.56640899       0.09842087
C        4.14731213       7.77570175       2.12294745       78       2.49137497       2.63362312      -0.36292851
C       -4.07098696       4.09792331      25.15353491       79      -1.22287107       1.84200168       0.56058407
C        6.30602556       0.62889067      24.67461744       80       4.10630608      -0.17658943      -0.91325283
C       -2.02203508       7.43466244      14.97339333       81       0.22673208       1.57608438      -0.56349659
C        4.32841243       4.10000307      25.01487022       82       1.75806975       2.96359849      -0.17430374
C        6.34714437       1.31512539      10.63553333       83       0.76769686       0.02507648      -0.77405906
C        7.38365697       3.14547989       7.71324208       84      -0.45976678      -0.08419494      -0.38775110
C        7.37679054       3.53982238       6.38256056       85      -0.19751240      -0.64269936      -0.04395907
C       11.15214986      -2.72716511      18.93779894       86      -0.25795531      -0.97330654      -0.02706730
C        6.24254707       7.82994392      18.16482192       87      -1.07394946      -0.70299470      -0.03052805
C        0.48990370      -1.75964182      17.67429448       88      -1.37509930       1.53488171      -1.19657850
O       -1.27617032       7.08207372      11.59366093       89      -0.07765895      -0.52153444       0.30152920
O        7.56388563      -0.28860634      14.95228571       90      -1.36094964      -0.15108119       0.41889751
O        5.28460369      -0.18810456      14.94381942       91      -2.90211105      -0.54884702      -1.80289543
O        3.81666323      -2.21695155      14.50751726       92      -0.06880885      -1.29543424       0.72566020
O        0.18326636       8.66925048      13.21427218       93      -0.82471961      -0.96752006      -0.07463370
O        4.97720578       8.73350340       1.77678754       94      -1.43109441      -1.19244742       0.95015025