61
Lattice="7.75385592 0.0 0.0 1.9738724921754058 7.628423410360142 0.0 1.0336591529462795 3.263564302960451 9.047819475468566" Properties=species:S:1:pos:R:3:spacegroup_kinds:I:1:forces:R:3 spacegroup="P 1" unit_cell=conventional occupancy="_JSON {\"0\": {\"Zn\": 1}, \"1\": {\"H\": 1}, \"2\": {\"H\": 1}, \"3\": {\"H\": 1}, \"4\": {\"H\": 1}, \"5\": {\"H\": 1}, \"6\": {\"H\": 1}, \"7\": {\"H\": 1}, \"8\": {\"H\": 1}, \"9\": {\"H\": 1}, \"10\": {\"H\": 1}, \"11\": {\"H\": 1}, \"12\": {\"H\": 1}, \"13\": {\"H\": 1}, \"14\": {\"H\": 1}, \"15\": {\"H\": 1}, \"16\": {\"H\": 1}, \"17\": {\"H\": 1}, \"18\": {\"H\": 1}, \"19\": {\"H\": 1}, \"20\": {\"H\": 1}, \"21\": {\"H\": 1}, \"22\": {\"H\": 1}, \"23\": {\"H\": 1}, \"24\": {\"H\": 1}, \"25\": {\"H\": 1}, \"26\": {\"H\": 1}, \"27\": {\"H\": 1}, \"28\": {\"H\": 1}, \"29\": {\"C\": 1}, \"30\": {\"C\": 1}, \"31\": {\"C\": 1}, \"32\": {\"C\": 1}, \"33\": {\"C\": 1}, \"34\": {\"C\": 1}, \"35\": {\"C\": 1}, \"36\": {\"C\": 1}, \"37\": {\"C\": 1}, \"38\": {\"C\": 1}, \"39\": {\"C\": 1}, \"40\": {\"C\": 1}, \"41\": {\"C\": 1}, \"42\": {\"C\": 1}, \"43\": {\"C\": 1}, \"44\": {\"C\": 1}, \"45\": {\"C\": 1}, \"46\": {\"C\": 1}, \"47\": {\"C\": 1}, \"48\": {\"C\": 1}, \"49\": {\"N\": 1}, \"50\": {\"N\": 1}, \"51\": {\"N\": 1}, \"52\": {\"N\": 1}, \"53\": {\"O\": 1}, \"54\": {\"O\": 1}, \"55\": {\"O\": 1}, \"56\": {\"O\": 1}, \"57\": {\"O\": 1}, \"58\": {\"O\": 1}, \"59\": {\"O\": 1}, \"60\": {\"O\": 1}}" energy=-379.3899230957031 free_energy=-379.3899230957031 stress="-0.00497448118403554 -3.6999714211560786e-05 0.0017805839888751507 -3.6999714211560786e-05 -0.008382098749279976 -0.000566504371818155 0.0017805839888751507 -0.000566504371818155 -0.0076936231926083565" pbc="T T T"
Zn       5.38070194       5.44596879       4.52381723        0      -0.00098297      -0.00457108      -0.01027528
H        5.76218869      10.45799676       8.88664485        1      -0.01463668       0.08126993      -0.01072557
H        4.99711717       0.43463495       0.15974227        2       0.04666726      -0.11226645       0.02132373
H        5.04760147       3.02441818       3.86398937        3       0.08415426      -0.02293859      -0.14923133
H        5.71005246       7.86771798       5.18359274        4      -0.01157595      -0.05332949       0.01772919
H        6.31283621       5.19608075       6.93586377        5      -0.12225064       0.06929378       0.03706598
H        4.44401868       5.69694555       2.11095111        6       0.19155295      -0.12237602      -0.17001839
H        7.07194319       9.49671089       6.02505705        7      -0.07159212      -0.01022747      -0.10247320
H        3.68887211       1.39630875       3.02134945        8       0.07008615      -0.01609796       0.10230051
H        4.63081918       3.39075454       6.77274211        9      -0.04914262      -0.15117712       0.10090121
H        6.12812454       7.50126872       2.27424312       10       0.07133235       0.13366690      -0.15846330
H        7.14312840       2.93360515       6.91454586       11       0.09272344       0.09605895      -0.05069689
H        3.61636408       7.95820355       2.13395255       12      -0.12930606      -0.07290570      -0.00695108
H        7.21057451       3.04018943       5.13986482       13       0.13204949      -0.15307575       0.10676913
H        3.55038609       7.85214239       3.90549397       14      -0.17455137       0.16165999      -0.04103066
H        8.50626104       4.91429986       5.00603279       15       0.16391048      -0.13763076       0.00896138
H        2.25392869       5.97710938       4.04073255       16      -0.15100503       0.12325965      -0.03288057
H        8.73671762       5.08880065       6.75776449       17      -0.04015099      -0.08317889       0.00174593
H        2.02170020       5.80397010       2.28725180       18       0.07589433       0.05499923       0.04952636
H        9.18932656       7.21244486       5.84686382       19       0.12997413       0.02369518       0.05019781
H        1.57146439       3.67905025       3.20043028       20      -0.14600800      -0.02642804      -0.05775513
H        7.60617196       7.38481400       6.59341348       21       0.05526173       0.06324416       0.02564253
H        3.15381540       3.50740703       2.45412676       22      -0.04501382      -0.07436159      -0.05189357
H        2.78599109       2.40419297       4.78868583       23       0.17735218       0.02747515       0.02976038
H        7.97423668       8.48692931       4.25764973       24      -0.18005197      -0.01104266      -0.04539360
H        2.76695737       4.03385324       5.46916243       25      -0.05211832      -0.11715400       0.14250979
H        7.99296770       6.85656490       3.57821002       26       0.07169929       0.10149606      -0.18220966
H        2.55690022       9.15938997       7.81531708       27      -0.06239522       0.06852150       0.02400798
H        8.20281960       1.73293484       1.23244801       28       0.06169702      -0.05895770      -0.04394553
C        5.19737111       2.96142128       5.93746158       29      -0.19670260       0.12859333       0.00541961
C        5.56258293       7.93077480       3.10749998       30       0.12722646      -0.11198074       0.03848344
C        6.65912360       3.38456014       6.03120471       31       0.06322233       0.04605833      -0.05807525
C        4.09854095       7.50787821       3.01540599       32       0.07402666      -0.13722053       0.03197842
C        8.09447408       5.38733555       5.90769667       33      -0.22505078       0.01959174      -0.07411610
C        2.66520528       5.50246617       3.13845994       34       0.19699660       0.07501919       0.04521433
C        8.13700550       6.90939090       5.74967921       35       0.03918061       0.03595595       0.02614120
C        2.62319401       3.98303330       3.29671654       36      -0.06696945      -0.07763699      -0.03221777
C        3.15302011       3.43761822       4.62655520       37       0.09044826       0.12232943      -0.13833147
C        7.60668169       7.45414020       4.41777701       38      -0.08461231      -0.13640983       0.22912046
C        3.08572556       7.10854756       8.11433050       39      -0.07607266      -0.03942977       0.13018748
C        7.67615391       3.78264401       0.93326524       40      -0.00129622       0.06349585      -0.11193404
C        2.79575917       5.92783235       8.82957762       41       0.03004821      -0.09841335       0.01405863
C        7.96322593       4.96345130       0.21826133       42       0.05065000       0.11437920      -0.10453984
C        2.31956651       8.24899048       8.36600800       43       0.04642874       0.04161464      -0.02942655
C        8.43921509       2.64241303       0.67857099       44      -0.04529592      -0.10007817       0.10393236
C        4.03962803       7.12856272       6.93634101       45      -0.25998855      -0.02392375       0.25000337
C        6.72036768       3.76082332       2.11118514       46       0.29656821       0.09449590      -0.28078547
C        3.71182128       4.75346698       8.77598511       47       0.00287580      -0.00861248       0.13200706
C        7.04848245       6.13850740       0.26883625       48      -0.01260728       0.01404250      -0.06094792
N        4.61704815       3.48322657       4.69353081       49      -0.41325143      -0.34622499       0.47076190
N        6.14284015       7.40607874       4.34996461       50       0.34032983       0.44855589      -0.30437931
N        6.73882619       4.85103375       6.06126105       51       0.47000018      -0.07841799       0.11634144
N        4.02131832       6.03833479       2.98344275       52      -0.56314570       0.21433213       0.03605758
O        3.99414167       6.07123665       6.20869099       53       0.07317401       0.26259187      -0.05023497
O        6.76477223       4.81892642       2.83711391       54      -0.06069826      -0.23490509       0.07292166
O        4.71435341       8.17443740       6.71669349       55       0.04664727      -0.03073147      -0.06818210
O        6.04482520       2.71754275       2.33098633       56      -0.07458144      -0.05181518       0.06114594
O        4.95200115       4.88826270       8.83330355       57      -0.04113796       0.10704257      -0.08136216
O        5.80812928       6.00342429       0.21528944       58       0.05200896      -0.09452829       0.05518574
O        3.10099069       3.57098059       8.76983537       59      -0.16285880      -0.14348996       0.03981099
O        7.66010312       7.32138386       0.27860699       60       0.11086506       0.14879836      -0.06873753
61
Lattice="7.75385592 0.0 0.0 1.9738724921754058 7.628423410360142 0.0 1.0336591529462795 3.263564302960451 9.047819475468566" Properties=species:S:1:pos:R:3:spacegroup_kinds:I:1:forces:R:3 spacegroup="P 1" unit_cell=conventional occupancy="_JSON {\"0\": {\"Zn\": 1}, \"1\": {\"H\": 1}, \"2\": {\"H\": 1}, \"3\": {\"H\": 1}, \"4\": {\"H\": 1}, \"5\": {\"H\": 1}, \"6\": {\"H\": 1}, \"7\": {\"H\": 1}, \"8\": {\"H\": 1}, \"9\": {\"H\": 1}, \"10\": {\"H\": 1}, \"11\": {\"H\": 1}, \"12\": {\"H\": 1}, \"13\": {\"H\": 1}, \"14\": {\"H\": 1}, \"15\": {\"H\": 1}, \"16\": {\"H\": 1}, \"17\": {\"H\": 1}, \"18\": {\"H\": 1}, \"19\": {\"H\": 1}, \"20\": {\"H\": 1}, \"21\": {\"H\": 1}, \"22\": {\"H\": 1}, \"23\": {\"H\": 1}, \"24\": {\"H\": 1}, \"25\": {\"H\": 1}, \"26\": {\"H\": 1}, \"27\": {\"H\": 1}, \"28\": {\"H\": 1}, \"29\": {\"C\": 1}, \"30\": {\"C\": 1}, \"31\": {\"C\": 1}, \"32\": {\"C\": 1}, \"33\": {\"C\": 1}, \"34\": {\"C\": 1}, \"35\": {\"C\": 1}, \"36\": {\"C\": 1}, \"37\": {\"C\": 1}, \"38\": {\"C\": 1}, \"39\": {\"C\": 1}, \"40\": {\"C\": 1}, \"41\": {\"C\": 1}, \"42\": {\"C\": 1}, \"43\": {\"C\": 1}, \"44\": {\"C\": 1}, \"45\": {\"C\": 1}, \"46\": {\"C\": 1}, \"47\": {\"C\": 1}, \"48\": {\"C\": 1}, \"49\": {\"N\": 1}, \"50\": {\"N\": 1}, \"51\": {\"N\": 1}, \"52\": {\"N\": 1}, \"53\": {\"O\": 1}, \"54\": {\"O\": 1}, \"55\": {\"O\": 1}, \"56\": {\"O\": 1}, \"57\": {\"O\": 1}, \"58\": {\"O\": 1}, \"59\": {\"O\": 1}, \"60\": {\"O\": 1}}" energy=-379.415771484375 free_energy=-379.415771484375 stress="-0.0047605037689208984 0.0005197053542360663 0.0014448697911575437 0.0005197053542360663 -0.007551238872110844 -5.350764695322141e-05 0.0014448697911575437 -5.350764695322141e-05 -0.006836513057351112" pbc="T T T"
Zn       5.37980097       5.44651532       4.52294013        0       0.00034504      -0.00955230      -0.01199359
H        5.76097564      10.46010657       8.88569863        1       0.00841997       0.02478654      -0.00502013
H        4.99691459       0.43309751       0.15897027        2       0.00198259      -0.04365142       0.01286440
H        5.04613650       3.02472671       3.86105880        3       0.06989056       0.01154765      -0.08416006
H        5.70791371       7.86758815       5.18210746        4       0.00356179      -0.07427412      -0.00952240
H        6.31015535       5.19765535       6.93488339        5      -0.07401991       0.02766506      -0.04888535
H        4.44409608       5.69508113       2.10880760        6       0.15946051      -0.09049583      -0.10563941
H        7.06950525       9.49793459       6.02273724        7      -0.06012577      -0.01977307      -0.09254382
H        3.68890233       1.39630812       3.02173681        8       0.05863388      -0.06345856       0.09496707
H        4.62847633       3.38899538       6.77462580        9      -0.02244274      -0.15667047       0.05988267
H        6.13023610       7.50291607       2.27133225       10       0.04973564       0.13584536      -0.13130979
H        7.14269747       2.93596910       6.91245368       11       0.09042481       0.07607144      -0.03034225
H        3.61420134       7.95678557       2.13214428       12      -0.08202138      -0.09063807       0.04677207
H        7.21161399       3.03771518       5.14180163       13       0.14093424      -0.15457657       0.06353309
H        3.54752802       7.85477635       3.90336506       14      -0.14589864       0.13560799      -0.05631346
H        8.50856930       4.91203289       5.00398263       15       0.12372644      -0.08809240       0.07549015
H        2.25115502       5.98004566       4.03956682       16      -0.11345077       0.08484191      -0.07032047
H        8.73468224       5.08856942       6.75847138       17      -0.07114245      -0.05606032      -0.06047516
H        2.02130518       5.80546936       2.28756267       18       0.09491587       0.03797126       0.06967372
H        9.19044556       7.21379443       5.84659780       19       0.05973266      -0.00316760       0.03423983
H        1.56912962       3.68076056       3.19784636       20      -0.14400679      -0.03039144      -0.04094863
H        7.60641728       7.38701067       6.59312190       21       0.04867564       0.05464414       0.03267860
H        3.15158956       3.50660717       2.45173612       22      -0.04817851      -0.07155324      -0.03975861
H        2.78762357       2.40587067       4.78760603       23       0.16282545       0.03206526       0.02139739
H        7.97210672       8.48664026       4.25592575       24      -0.17431402      -0.03601339      -0.02707946
H        2.76420448       4.03144738       5.47186944       25      -0.02402861      -0.13101338       0.07140990
H        7.99322763       6.85769878       3.57524303       26       0.04080567       0.13943753      -0.09200507
H        2.55465761       9.16081780       7.81495920       27      -0.04102866       0.07469417       0.00147335
H        8.20297671       1.73196462       1.22997873       28       0.03353772      -0.06929536      -0.01343474
C        5.19539755       2.96254554       5.93615893       29      -0.18582140       0.11189825       0.07247320
C        5.56382011       7.92873459       3.10719571       30       0.11471546      -0.02111432      -0.04282176
C        6.65866277       3.38565778       6.02926562       31       0.02453776      -0.00715402      -0.01915128
C        4.09859303       7.50605040       3.01543456       32       0.03402326      -0.04448929      -0.02456127
C        8.09175402       5.38792682       5.90540866       33      -0.07297200      -0.04022721      -0.04276610
C        2.66721995       5.50256590       3.13847253       34       0.03997153       0.09491533       0.03689393
C        8.13585357       6.91044420       5.74921742       35       0.09067482       0.01470049       0.05425633
C        2.62124090       3.98203084       3.29521083       36      -0.01162121      -0.00749974      -0.04074982
C        3.15375924       3.44003900       4.62431023       37      -0.01945043       0.05087300      -0.02637357
C        7.60432409       7.45307657       4.41981971       38       0.04173237      -0.08458199       0.04365548
C        3.08367965       7.10767750       8.11471199       39      -0.05286976      -0.02252956       0.12612841
C        7.67623549       3.78441562       0.93141114       40      -0.02062551       0.02918921      -0.09803841
C        2.79542017       5.92630658       8.83012020       41      -0.06508026      -0.03494709       0.03345947
C        7.96254533       4.96554465       0.21582054       42       0.07157557       0.07543319      -0.09089213
C        2.31900546       8.25005236       8.36425990       43       0.03176033       0.00376686      -0.00290374
C        8.43697786       2.64240258       0.67869141       44       0.02551139      -0.07514748       0.03960073
C        4.03668683       7.12751823       6.93856663       45      -0.10001251       0.15096958       0.13180169
C        6.72234369       3.76132230       2.10823105       46       0.09546605      -0.06089139      -0.14953738
C        3.70955022       4.75318806       8.77661468       47      -0.01268212      -0.04473817       0.09723602
C        7.04796595       6.13906181       0.26633056       48      -0.01881219       0.03262722      -0.02781624
N        4.61426939       3.48073564       4.69463399       49      -0.32296804      -0.28194231       0.32431450
N        6.14502313       7.40904195       4.34705601       50       0.21483123       0.37359747      -0.16696526
N        6.74095066       4.84867042       6.06085477       51       0.33360767       0.04316749       0.16931787
N        4.01832943       6.03938713       2.98103012       52      -0.43781924       0.13837180       0.00620547
O        3.99357914       6.07369006       6.20693530       53       0.05126026       0.22079307      -0.03018284
O        6.76199764       4.81629637       2.83805095       54      -0.01622900      -0.19564185       0.04072693
O        4.71455421       8.17546974       6.71573749       55      -0.06757477      -0.16930062       0.00203567
O        6.04277554       2.71639778       2.33222955       56       0.06323783       0.08662319      -0.02753988
O        4.94916444       4.89097798       8.83096781       57      -0.03463960       0.06453280      -0.07131059
O        5.80770145       6.00134001       0.21667448       58       0.07351142      -0.06017733       0.04485770
O        3.09812387       3.56851322       8.76856036       59      -0.13903898      -0.03429705       0.04662881
O        7.65951571       7.32369019       0.27732385       60       0.12484934       0.04671907      -0.07261175
61
Lattice="7.75385592 0.0 0.0 1.9738724921754058 7.628423410360142 0.0 1.0336591529462795 3.263564302960451 9.047819475468566" Properties=species:S:1:pos:R:3:spacegroup_kinds:I:1:forces:R:3 spacegroup="P 1" unit_cell=conventional occupancy="_JSON {\"0\": {\"Zn\": 1}, \"1\": {\"H\": 1}, \"2\": {\"H\": 1}, \"3\": {\"H\": 1}, \"4\": {\"H\": 1}, \"5\": {\"H\": 1}, \"6\": {\"H\": 1}, \"7\": {\"H\": 1}, \"8\": {\"H\": 1}, \"9\": {\"H\": 1}, \"10\": {\"H\": 1}, \"11\": {\"H\": 1}, \"12\": {\"H\": 1}, \"13\": {\"H\": 1}, \"14\": {\"H\": 1}, \"15\": {\"H\": 1}, \"16\": {\"H\": 1}, \"17\": {\"H\": 1}, \"18\": {\"H\": 1}, \"19\": {\"H\": 1}, \"20\": {\"H\": 1}, \"21\": {\"H\": 1}, \"22\": {\"H\": 1}, \"23\": {\"H\": 1}, \"24\": {\"H\": 1}, \"25\": {\"H\": 1}, \"26\": {\"H\": 1}, \"27\": {\"H\": 1}, \"28\": {\"H\": 1}, \"29\": {\"C\": 1}, \"30\": {\"C\": 1}, \"31\": {\"C\": 1}, \"32\": {\"C\": 1}, \"33\": {\"C\": 1}, \"34\": {\"C\": 1}, \"35\": {\"C\": 1}, \"36\": {\"C\": 1}, \"37\": {\"C\": 1}, \"38\": {\"C\": 1}, \"39\": {\"C\": 1}, \"40\": {\"C\": 1}, \"41\": {\"C\": 1}, \"42\": {\"C\": 1}, \"43\": {\"C\": 1}, \"44\": {\"C\": 1}, \"45\": {\"C\": 1}, \"46\": {\"C\": 1}, \"47\": {\"C\": 1}, \"48\": {\"C\": 1}, \"49\": {\"N\": 1}, \"50\": {\"N\": 1}, \"51\": {\"N\": 1}, \"52\": {\"N\": 1}, \"53\": {\"O\": 1}, \"54\": {\"O\": 1}, \"55\": {\"O\": 1}, \"56\": {\"O\": 1}, \"57\": {\"O\": 1}, \"58\": {\"O\": 1}, \"59\": {\"O\": 1}, \"60\": {\"O\": 1}}" energy=-379.4313659667969 free_energy=-379.4313659667969 stress="-0.005197744816541672 0.0004805324715562165 0.001689374796114862 0.0004805324715562165 -0.0076126656495034695 0.000225961790420115 0.001689374796114862 0.000225961790420115 -0.006826331838965416" pbc="T T T"
Zn       5.37867479       5.44746266       4.52262495        0      -0.00183967      -0.01249543      -0.01968477
H        5.75897971      10.46099138       8.88388779        1       0.01823561      -0.01333508       0.00163393
H        4.99637196       0.43253003       0.15762960        2      -0.00840195      -0.00946981       0.01053896
H        5.04388021       3.02537433       3.85894086        3       0.07298660       0.02183077      -0.04600976
H        5.70563686       7.86697655       5.18124802        4       0.00956573      -0.07752926      -0.03904352
H        6.30792983       5.19831073       6.93294770        5      -0.08118871       0.04249126      -0.00371657
H        4.44486589       5.69356388       2.10632487        6       0.11924650      -0.06808814      -0.03843363
H        7.06755211       9.49887888       6.02034813        7      -0.05680047      -0.04872684      -0.07463686
H        3.68904452       1.39488193       3.02322626        8       0.06443410      -0.01736802       0.07453993
H        4.62770841       3.38791155       6.77497477        9      -0.04049037      -0.13672014       0.08293799
H        6.12864054       7.50551277       2.26864891       10       0.10494180       0.09443627      -0.18434563
H        7.14444340       2.93798928       6.91156136       11       0.05285601       0.08213191      -0.06691893
H        3.61174471       7.95487705       2.13313391       12      -0.09990198      -0.05539320      -0.02209085
H        7.21368852       3.03571423       5.14297714       13       0.13204454      -0.14277335       0.03153383
H        3.54464046       7.85566196       3.90047789       14      -0.12523510       0.12988372      -0.05100179
H        8.50980469       4.91054177       5.00553824       15       0.11540377      -0.09442623       0.04365874
H        2.24836960       5.98225465       4.03719063       16      -0.09054668       0.06415839      -0.08555585
H        8.73352577       5.08773551       6.75747573       17      -0.08570377      -0.04359148      -0.08256909
H        2.02164634       5.80641223       2.28672699       18       0.09464678       0.03247016       0.06935848
H        9.19089349       7.21438509       5.84692719       19       0.04727052      -0.01762378       0.03005127
H        1.56712140       3.68179464       3.19512771       20      -0.11523708      -0.02217058      -0.03173432
H        7.60592773       7.38890006       6.59244767       21       0.05726573       0.03593184       0.02584614
H        3.15028231       3.50557596       2.44948632       22      -0.04831716      -0.06250373      -0.03727328
H        2.78951470       2.40615104       4.78644792       23       0.13718896       0.02658736       0.01110613
H        7.96917827       8.48672074       4.25572977       24      -0.16133775      -0.05104180      -0.01865293
H        2.76213366       4.02951366       5.47402243       25      -0.00093737      -0.15590361      -0.00039849
H        7.99172736       6.85950117       3.57284966       26       0.04520112       0.13077173      -0.07414316
H        2.55188608       9.16355040       7.81418689       27      -0.03829870       0.01826423       0.01854146
H        8.20284446       1.73162196       1.22937416       28       0.02984884      -0.05301444      -0.01951422
C        5.19269055       2.96280158       5.93618002       29      -0.10188043       0.10374965       0.03401205
C        5.56611163       7.92834935       3.10491297       30      -0.05545779      -0.00790900       0.01697010
C        6.65796643       3.38630777       6.02670907       31       0.01827455      -0.02488148       0.09160915
C        4.09731238       7.50654799       3.01352781       32       0.10343336      -0.10366514       0.03397962
C        8.08919205       5.38725043       5.90367296       33       0.03292692      -0.00225958       0.05289669
C        2.66820698       5.50305460       3.13751025       34      -0.06500423       0.07972407       0.02857869
C        8.13620158       6.91024508       5.74954798       35       0.06375229       0.01867548       0.03689769
C        2.62028136       3.98230141       3.29269225       36      -0.02182961      -0.01471524      -0.01097301
C        3.15362731       3.44076653       4.62209399       37      -0.10055637       0.04905320       0.05739982
C        7.60393032       7.45176935       4.42037495       38       0.02264708      -0.02439220      -0.00081883
C        3.08257218       7.10715504       8.11619915       39      -0.04539834       0.03565221       0.06375763
C        7.67678967       3.78482441       0.92866561       40      -0.05216843       0.02722576      -0.06453672
C        2.79337057       5.92653924       8.82947216       41       0.00332630      -0.11809475       0.03331965
C        7.96208299       4.96659745       0.21368546       42       0.05579294       0.05784562      -0.06607811
C        2.31739815       8.25021640       8.36303253       43       0.07527331       0.05004776      -0.03935087
C        8.43639253       2.64225701       0.67733047       44      -0.00630789      -0.08215351       0.06774428
C        4.03413235       7.12796241       6.93918408       45      -0.09806895       0.05889082       0.10801086
C        6.72400377       3.76032192       2.10561416       46       0.06490371      -0.00300887      -0.10645926
C        3.70911627       4.75169853       8.77700564       47      -0.08906129       0.03694737       0.06484646
C        7.04737178       6.13955838       0.26422213       48       0.09223528       0.07463387       0.00268207
N        4.61128827       3.47788920       4.69534972       49      -0.25522453      -0.21626328       0.23962086
N        6.14407379       7.41093282       4.34466191       50       0.24659215       0.30730638      -0.09308876
N        6.74259992       4.84910917       6.06273687       51       0.25380093      -0.01246682       0.06847346
N        4.01535294       6.03818782       2.97905298       52      -0.29777104       0.19357598      -0.04335776
O        3.99198582       6.07412258       6.20638860       53       0.03224739       0.21542880      -0.01008856
O        6.76090847       4.81373436       2.83774087       54       0.02128319      -0.14768878       0.02908088
O        4.71259773       8.17326766       6.71453509       55      -0.03378081      -0.08082169       0.00953435
O        6.04318070       2.71813606       2.33174906       56       0.03891188      -0.00659961      -0.05153900
O        4.94781690       4.89303691       8.82869852       57      -0.02833852       0.02216259      -0.05952224
O        5.80886164       5.99994647       0.21714419       58      -0.00594541      -0.03595085       0.03093755
O        3.09564035       3.56724348       8.76822655       59      -0.10645374       0.00605182       0.05012593
O        7.66025231       7.32638870       0.27665354       60       0.09094679      -0.05288269      -0.07868713
61
Lattice="7.75385592 0.0 0.0 1.9738724921754058 7.628423410360142 0.0 1.0336591529462795 3.263564302960451 9.047819475468566" Properties=species:S:1:pos:R:3:spacegroup_kinds:I:1:forces:R:3 spacegroup="P 1" unit_cell=conventional occupancy="_JSON {\"0\": {\"Zn\": 1}, \"1\": {\"H\": 1}, \"2\": {\"H\": 1}, \"3\": {\"H\": 1}, \"4\": {\"H\": 1}, \"5\": {\"H\": 1}, \"6\": {\"H\": 1}, \"7\": {\"H\": 1}, \"8\": {\"H\": 1}, \"9\": {\"H\": 1}, \"10\": {\"H\": 1}, \"11\": {\"H\": 1}, \"12\": {\"H\": 1}, \"13\": {\"H\": 1}, \"14\": {\"H\": 1}, \"15\": {\"H\": 1}, \"16\": {\"H\": 1}, \"17\": {\"H\": 1}, \"18\": {\"H\": 1}, \"19\": {\"H\": 1}, \"20\": {\"H\": 1}, \"21\": {\"H\": 1}, \"22\": {\"H\": 1}, \"23\": {\"H\": 1}, \"24\": {\"H\": 1}, \"25\": {\"H\": 1}, \"26\": {\"H\": 1}, \"27\": {\"H\": 1}, \"28\": {\"H\": 1}, \"29\": {\"C\": 1}, \"30\": {\"C\": 1}, \"31\": {\"C\": 1}, \"32\": {\"C\": 1}, \"33\": {\"C\": 1}, \"34\": {\"C\": 1}, \"35\": {\"C\": 1}, \"36\": {\"C\": 1}, \"37\": {\"C\": 1}, \"38\": {\"C\": 1}, \"39\": {\"C\": 1}, \"40\": {\"C\": 1}, \"41\": {\"C\": 1}, \"42\": {\"C\": 1}, \"43\": {\"C\": 1}, \"44\": {\"C\": 1}, \"45\": {\"C\": 1}, \"46\": {\"C\": 1}, \"47\": {\"C\": 1}, \"48\": {\"C\": 1}, \"49\": {\"N\": 1}, \"50\": {\"N\": 1}, \"51\": {\"N\": 1}, \"52\": {\"N\": 1}, \"53\": {\"O\": 1}, \"54\": {\"O\": 1}, \"55\": {\"O\": 1}, \"56\": {\"O\": 1}, \"57\": {\"O\": 1}, \"58\": {\"O\": 1}, \"59\": {\"O\": 1}, \"60\": {\"O\": 1}}" energy=-379.4434814453125 free_energy=-379.4434814453125 stress="-0.0051900530233979225 9.117766603594646e-05 0.0016138607170432806 9.117766603594646e-05 -0.0076025985181331635 0.00021178070164751261 0.0016138607170432806 0.00021178070164751261 -0.006683923304080963" pbc="T T T"
Zn       5.37671933       5.44820602       4.52156853        0       0.00084253      -0.01203786      -0.01843427
H        5.75876931      10.46203842       8.88283913        1      -0.01085766      -0.00342286       0.00296412
H        4.99628380       0.43346118       0.15650566        2       0.05481129      -0.06174350       0.01939917
H        5.04343247       3.02486393       3.85731388        3       0.04419903       0.04796083       0.01304921
H        5.70542030       7.86700473       5.17986236        4       0.00347639      -0.05890788      -0.01724388
H        6.30509169       5.19926604       6.93218884        5      -0.04785935       0.02925180      -0.04225863
H        4.44445901       5.69387876       2.10464434        6       0.09769829      -0.05943479      -0.01288788
H        7.06536310       9.49810294       6.01840522        7      -0.04655221       0.00890831      -0.06296343
H        3.69019911       1.39413678       3.02274194        8       0.04830652      -0.01014684       0.06263825
H        4.62618336       3.38636009       6.77451259        9      -0.06563064      -0.10766022       0.12328469
H        6.12944221       7.50566369       2.26594602       10       0.07417486       0.10537680      -0.14454807
H        7.14370773       2.93877278       6.90953165       11       0.07553758       0.05004718      -0.00787339
H        3.60964293       7.95396257       2.13102202       12      -0.07146384      -0.06113056       0.00997983
H        7.21519100       3.03316446       5.14231156       13       0.09532747      -0.11781306       0.07041110
H        3.54305363       7.85737479       3.89766612       14      -0.12011407       0.12586531      -0.04285897
H        8.51145550       4.90900171       5.00629509       15       0.10233545      -0.08472251       0.04870273
H        2.24634750       5.98446076       4.03451369       16      -0.10186309       0.06359862      -0.06362090
H        8.73075311       5.08643333       6.75545686       17      -0.03328461      -0.04692265      -0.02383273
H        2.02222985       5.80727101       2.28583946       18       0.04856085       0.04518673       0.02615070