86
Lattice="8.74198669 0.0 0.0 -0.00042183699901963235 9.574042840706827 0.0 -0.00010177062325989692 -2.74869422838254 11.412967201194538" Properties=species:S:1:pos:R:3:spacegroup_kinds:I:1:forces:R:3 spacegroup="P 1" unit_cell=conventional occupancy="_JSON {\"0\": {\"Cd\": 1}, \"1\": {\"Cd\": 1}, \"2\": {\"H\": 1}, \"3\": {\"H\": 1}, \"4\": {\"H\": 1}, \"5\": {\"H\": 1}, \"6\": {\"H\": 1}, \"7\": {\"H\": 1}, \"8\": {\"H\": 1}, \"9\": {\"H\": 1}, \"10\": {\"H\": 1}, \"11\": {\"H\": 1}, \"12\": {\"H\": 1}, \"13\": {\"H\": 1}, \"14\": {\"H\": 1}, \"15\": {\"H\": 1}, \"16\": {\"H\": 1}, \"17\": {\"H\": 1}, \"18\": {\"H\": 1}, \"19\": {\"H\": 1}, \"20\": {\"H\": 1}, \"21\": {\"H\": 1}, \"22\": {\"H\": 1}, \"23\": {\"H\": 1}, \"24\": {\"H\": 1}, \"25\": {\"H\": 1}, \"26\": {\"H\": 1}, \"27\": {\"H\": 1}, \"28\": {\"H\": 1}, \"29\": {\"H\": 1}, \"30\": {\"H\": 1}, \"31\": {\"H\": 1}, \"32\": {\"C\": 1}, \"33\": {\"C\": 1}, \"34\": {\"C\": 1}, \"35\": {\"C\": 1}, \"36\": {\"C\": 1}, \"37\": {\"C\": 1}, \"38\": {\"C\": 1}, \"39\": {\"C\": 1}, \"40\": {\"C\": 1}, \"41\": {\"C\": 1}, \"42\": {\"C\": 1}, \"43\": {\"C\": 1}, \"44\": {\"C\": 1}, \"45\": {\"C\": 1}, \"46\": {\"C\": 1}, \"47\": {\"C\": 1}, \"48\": {\"C\": 1}, \"49\": {\"C\": 1}, \"50\": {\"C\": 1}, \"51\": {\"C\": 1}, \"52\": {\"C\": 1}, \"53\": {\"C\": 1}, \"54\": {\"C\": 1}, \"55\": {\"C\": 1}, \"56\": {\"C\": 1}, \"57\": {\"C\": 1}, \"58\": {\"C\": 1}, \"59\": {\"C\": 1}, \"60\": {\"C\": 1}, \"61\": {\"C\": 1}, \"62\": {\"C\": 1}, \"63\": {\"C\": 1}, \"64\": {\"C\": 1}, \"65\": {\"C\": 1}, \"66\": {\"C\": 1}, \"67\": {\"C\": 1}, \"68\": {\"C\": 1}, \"69\": {\"C\": 1}, \"70\": {\"Br\": 1}, \"71\": {\"Br\": 1}, \"72\": {\"N\": 1}, \"73\": {\"N\": 1}, \"74\": {\"N\": 1}, \"75\": {\"N\": 1}, \"76\": {\"O\": 1}, \"77\": {\"O\": 1}, \"78\": {\"O\": 1}, \"79\": {\"O\": 1}, \"80\": {\"O\": 1}, \"81\": {\"O\": 1}, \"82\": {\"O\": 1}, \"83\": {\"O\": 1}, \"84\": {\"O\": 1}, \"85\": {\"O\": 1}}" energy=-568.9288330078125 free_energy=-568.9288330078125 stress="-0.0020467268768697977 -0.00017115917580667883 0.00016596511704847217 -0.00017115917580667883 0.0012538759037852287 0.000944693514611572 0.00016596511704847217 0.000944693514611572 -0.001996009610593319" pbc="T T T"
Cd       6.19780923       3.47453089      11.25550605        0      -0.00026388       0.20386101      -0.12364077
Cd       1.82721835       3.41074912       0.21728086        1      -0.00254337      -0.20416749       0.11979628
H        4.91604323      -1.33699523       6.30782106        2       0.04016589       0.00561186       0.13278909
H        0.54699722       8.21289979       5.15571591        3      -0.00725207      -0.02369344       0.08536610
H        3.38219532       6.61604688       7.40295456        4      -0.00830961      -0.05133677       0.07086828
H        7.75414408       0.26863203       4.06923704        5      -0.01055236       0.05193118      -0.06809948
H        3.73703061       5.96690034       9.77095490        6       0.04576156       0.03684945       0.04126445
H        8.10979350       0.91806339       1.70164787        7       0.02463010      -0.01838885      -0.04959837
H        8.39870676      -0.80087404       9.59836954        8       0.10483982      -0.01504427       0.06547762
H        4.02751059       7.68622908       1.87312606        9       0.10620312       0.01439958      -0.06492298
H        7.74385706      -1.52654461      11.04300093       10       0.08298716       0.06370731       0.06911428
H        3.37272037       8.41163902       0.42950337       11       0.08641601      -0.05379576      -0.08972751
H        5.38915424       3.72518898       1.74022252       12       0.01694068       0.08549119       0.01023778
H        1.01852436       3.16003033       9.73228734       13       0.02712143      -0.09661877      -0.03142145
H        5.50246801       3.01545656       4.12113021       14       0.01145498       0.05149272       0.00343980
H        1.13173775       3.86957184       7.35173871       15       0.01749231      -0.07247511      -0.00616433
H        6.92782834       6.97088444       5.05868866       16       0.28424764       0.59721416       0.56286991
H        2.55629304      -0.11618770       6.38387551       17      -0.06740848       0.28998664       0.30033994
H        6.83903496       7.50189076       2.62840829       18      -0.00973279      -0.00277422       0.05201516
H        2.46799230      -0.61702824       8.84377550       19      -0.04653130       0.03926563      -0.05505188
H        4.53827034       3.22250610       6.14416171       20       0.31735954       0.21679452       0.28477007
H        0.16728777       3.64405367       5.31120653       21      -0.03929129       0.03604800       0.06126142
H        4.62685884       2.71043702       8.59283335       22      -0.03348677      -0.02639381      -0.02056044
H        0.25563865       4.17466396       2.87932974       23       0.00292708      -0.02817561       0.04561279
H        7.82848261       5.27460578       9.18663560       24       0.02838033       0.04208689      -0.02348346
H        3.45715660       1.61068032       2.28620784       25       0.04385141      -0.05068526       0.00252068
H        7.91255539       5.88015190       6.77957958       26      -0.06857051      -0.04041924      -0.01114292
H        3.54183672       1.00388131       4.69330996       27      -0.08354320       0.06257650      -0.00336587
H        0.13130807       4.76355493      11.13637916       28      -0.34207815      -0.19244716       0.03093427
H        4.50246206       2.12107989       0.33653677       29      -0.34626731       0.20495394      -0.03643790
H        0.34024495       6.15980586       0.54220016       30      -0.06539962      -0.06194655       0.03066254
H        4.71120901       0.72517861      10.93075855       31      -0.05457380       0.06876481      -0.03965122
C        5.45563260      -2.31772905      10.03919235       32       0.14157791       0.12602708       0.16974364
C        1.08440357       9.20289309       1.43226881       33       0.13706052      -0.13739854      -0.11669010
C        6.33839534      -1.38709347       9.44500240       34       0.09909789      -0.12325260       0.30109018
C        1.96735215       8.27226882       2.02716595       35       0.10008322       0.12244475      -0.30666116
C        6.10445380      -1.06268258       8.10101414       36       0.19647586       0.25976488      -0.51977098
C        1.73336373       7.94750761       3.37151592       37       0.20538919      -0.24712741       0.47705668
C        5.05803873      -1.60696745       7.35881025       38      -0.06653096      -0.07882308       0.02401444
C        0.68703572       8.49154583       4.11380338       39      -0.02933852       0.09455966      -0.23631506
C        4.20390274       7.05032198       7.97383193       40      -0.05301584       0.02498845      -0.02211618
C        8.57622977      -0.16524652       3.49871348       41      -0.06524658      -0.02800223       0.02798250
C        4.40525930       6.69234420       9.30518879       42      -0.12377866      -0.10046911      -0.14540042
C        0.03478856       0.19263098       2.16717046       43      -0.08485431       0.08333528       0.15334541
C        5.63398766       0.05354996       0.09314296       44      -0.08295494      -0.09008226      -0.49211627
C        1.26247057       6.83191281      11.37970659       45      -0.08920357       0.06850426       0.45892048
C        7.49652837      -0.84031398      10.22649024       46      -0.29978812       0.09541291      -0.12962694
C        3.12540673       7.72519118       1.24484507       47      -0.31045067      -0.09332973       0.17265353
C        7.34062852       0.55213545      10.85106120       48       0.03274560      -0.01826054      -0.01935202
C        2.96975275       6.33270933       0.62162905       49       0.03120676       0.02355278       0.00623745
C        5.74637343       4.40983096       2.50955770       50      -0.02670851      -0.03662121       0.12047905
C        1.37566047       2.47523335       8.96194067       51      -0.04057832       0.04079770      -0.03547922
C        5.79225520       4.02914846       3.84664470       52      -0.00614129      -0.08070087      -0.01247519
C        1.42135406       2.85497092       7.62585756       53      -0.01103523       0.12772839      -0.01287726
C        6.22164241       4.94926385       4.81563402       54      -0.02183796      -0.00647952      -0.05819051
C        1.85078759       1.93593348       6.65730941       55       0.03573000      -0.17411339       0.02238844
C        6.61587900       6.22076200       4.37092571       56      -0.26898584      -0.52612478      -0.52825457
C        2.24468750       0.65941933       7.10166845       57      -0.03378583      -0.11391978      -0.34419495
C        6.55011765       6.52307300       3.01451429       58       0.01264787      -0.01939765      -0.06187157
C        2.17330531       0.36168873       8.45750400       59       0.14773406      -0.16491911       0.05795269
C        6.23794965       4.59603522       6.24803463       60       0.02918079       0.11235478      -0.12091799
C        1.86715172       2.28873732       5.22486760       61       0.04737153      -0.10865070       0.10437387
C        5.31007928       3.68810676       6.78085891       62      -0.37416565      -0.24727118      -0.16265874
C        0.93930362       3.19641005       4.69175960       63      -0.04718037      -0.01994434      -0.16775629
C        5.33942688       3.39728049       8.13953155       64      -0.00341386      -0.05278578      -0.01201943
C        0.96879786       3.48461481       3.33215264       65      -0.09026659       0.16513795       0.03724906
C        7.12446202       4.83313246       8.47874403       66       0.02537853      -0.15110306       0.11869702
C        2.75368265       2.05217180       2.99329961       67       0.02799007       0.14559583      -0.08323845
C        7.16261672       5.17118844       7.13061696       68       0.05196600       0.04372032       0.04245545
C        2.79236110       1.71414362       4.34129772       69       0.05908072      -0.05419915      -0.00741902
Br       7.28270794       0.14823147       7.18499061       70      -0.14866117      -0.07838646       0.10118718
Br       2.91169296       6.73718497       4.28785668       71      -0.14771727       0.07519153      -0.10459131
N        6.11382254       5.63737939       2.10249873       72      -0.00092542       0.02909050       0.02705544
N        1.74305014       1.24779233       9.36979107       73      -0.04324841       0.02249478      -0.01941040
N        6.22841493       3.96322791       8.97305770       74       0.09224770       0.12863421      -0.07163221
N        1.85734745       2.92222395       2.50006174       75       0.14609909      -0.16193600      -0.00064737
O        6.11502010       8.49276704       0.37621217       76       0.09992132      -0.28486946      -0.01347415
O        1.74398865      -1.60748466      11.09654943       77       0.10448616       0.29792976       0.01357333
O        5.28680666       0.91635408       0.95900932       78       0.12903294      -0.11699255       0.18272066
O        0.91556032       5.96873869      10.51359405       79       0.13331874       0.12666093      -0.17469439
O        6.34067138       1.26781463      10.49870449       80      -0.03102666       0.05069000      -0.06378147
O        1.96947750       5.61731973       0.97371445       81      -0.02606970      -0.05393253       0.06501241
O        8.21443461       3.67146723       0.27584248       82       0.09526493      -0.10185085      -0.02308503
O        3.84376562       3.21386966      11.19706737       83       0.09024641       0.09223881       0.02376824
O        8.41407051       3.90895197      11.43073824       84       0.10376638       0.17216666      -0.03719155
O        4.04335478       2.97610863       0.04173987       85       0.09683555      -0.19075227       0.04988123
86
Lattice="8.74198669 0.0 0.0 -0.00042183699901963235 9.574042840706827 0.0 -0.00010177062325989692 -2.74869422838254 11.412967201194538" Properties=species:S:1:pos:R:3:spacegroup_kinds:I:1:forces:R:3 spacegroup="P 1" unit_cell=conventional occupancy="_JSON {\"0\": {\"Cd\": 1}, \"1\": {\"Cd\": 1}, \"2\": {\"H\": 1}, \"3\": {\"H\": 1}, \"4\": {\"H\": 1}, \"5\": {\"H\": 1}, \"6\": {\"H\": 1}, \"7\": {\"H\": 1}, \"8\": {\"H\": 1}, \"9\": {\"H\": 1}, \"10\": {\"H\": 1}, \"11\": {\"H\": 1}, \"12\": {\"H\": 1}, \"13\": {\"H\": 1}, \"14\": {\"H\": 1}, \"15\": {\"H\": 1}, \"16\": {\"H\": 1}, \"17\": {\"H\": 1}, \"18\": {\"H\": 1}, \"19\": {\"H\": 1}, \"20\": {\"H\": 1}, \"21\": {\"H\": 1}, \"22\": {\"H\": 1}, \"23\": {\"H\": 1}, \"24\": {\"H\": 1}, \"25\": {\"H\": 1}, \"26\": {\"H\": 1}, \"27\": {\"H\": 1}, \"28\": {\"H\": 1}, \"29\": {\"H\": 1}, \"30\": {\"H\": 1}, \"31\": {\"H\": 1}, \"32\": {\"C\": 1}, \"33\": {\"C\": 1}, \"34\": {\"C\": 1}, \"35\": {\"C\": 1}, \"36\": {\"C\": 1}, \"37\": {\"C\": 1}, \"38\": {\"C\": 1}, \"39\": {\"C\": 1}, \"40\": {\"C\": 1}, \"41\": {\"C\": 1}, \"42\": {\"C\": 1}, \"43\": {\"C\": 1}, \"44\": {\"C\": 1}, \"45\": {\"C\": 1}, \"46\": {\"C\": 1}, \"47\": {\"C\": 1}, \"48\": {\"C\": 1}, \"49\": {\"C\": 1}, \"50\": {\"C\": 1}, \"51\": {\"C\": 1}, \"52\": {\"C\": 1}, \"53\": {\"C\": 1}, \"54\": {\"C\": 1}, \"55\": {\"C\": 1}, \"56\": {\"C\": 1}, \"57\": {\"C\": 1}, \"58\": {\"C\": 1}, \"59\": {\"C\": 1}, \"60\": {\"C\": 1}, \"61\": {\"C\": 1}, \"62\": {\"C\": 1}, \"63\": {\"C\": 1}, \"64\": {\"C\": 1}, \"65\": {\"C\": 1}, \"66\": {\"C\": 1}, \"67\": {\"C\": 1}, \"68\": {\"C\": 1}, \"69\": {\"C\": 1}, \"70\": {\"Br\": 1}, \"71\": {\"Br\": 1}, \"72\": {\"N\": 1}, \"73\": {\"N\": 1}, \"74\": {\"N\": 1}, \"75\": {\"N\": 1}, \"76\": {\"O\": 1}, \"77\": {\"O\": 1}, \"78\": {\"O\": 1}, \"79\": {\"O\": 1}, \"80\": {\"O\": 1}, \"81\": {\"O\": 1}, \"82\": {\"O\": 1}, \"83\": {\"O\": 1}, \"84\": {\"O\": 1}, \"85\": {\"O\": 1}}" energy=-568.9288330078125 free_energy=-568.9288330078125 stress="-0.0018724927213042974 -0.00010030391422333196 0.0002237022272311151 -0.00010030391422333196 0.001299590803682804 0.0010432172566652298 0.0002237022272311151 0.0010432172566652298 -0.0017824728274717927" pbc="T T T"
Cd       6.22779087       3.50447337      11.28547642        0       0.00008911       0.20475428      -0.12342505
Cd       1.85721230       3.44064157       0.24648045        1      -0.00189252      -0.20761831       0.12957379
H        4.94574208      -1.30702815       6.33635017        2       0.04566760      -0.00225107       0.16866982
H        0.57692739       8.24287478       5.18523309        3      -0.00974315      -0.02750509       0.10019332
H        3.40889505       6.64598470       7.43264844        4       0.04918157      -0.02347305       0.10479790
H        7.78412611       0.29848386       4.09910515        5      -0.01270365       0.05350503      -0.06731721
H        3.76655435       5.99681062       9.80085598        6       0.04616809       0.03801951       0.04243584
H        8.13900801       0.94796864       1.73159067        7       0.03121676      -0.02353995      -0.04771454
H        8.42869062      -0.77091244       9.62833499        8       0.10754116      -0.01965244       0.06332717
H        4.05721775       7.71591012       1.90308405        9       0.09837828       0.01186083      -0.07054663
H        7.77307396      -1.49660272      11.07284624       10       0.08654533       0.06349318       0.07054241
H        3.40271257       8.44160077       0.45943589       11       0.08069976      -0.06883725      -0.07656206
H        5.41900495       3.75518647       1.77020045       12       0.00837755       0.06611120      -0.01547864
H        1.04851426       3.19001479       9.76226350       13       0.02727020      -0.09684646      -0.03072961
H        5.53242480       3.04524559       4.15085555       14       0.00165031       0.02434015       0.00315008
H        1.16014243       3.89952540       7.38167492       15       0.02303383      -0.08097631      -0.00567382
H        6.95723445       7.00085705       5.08860710       16       0.28740942       0.59992623       0.56644046
H        2.58608008      -0.08620017       6.41381220       17      -0.05672314       0.25724626       0.27868208
H        6.86901182       7.53182534       2.65822082       18      -0.01177475      -0.00709363       0.05250555
H        2.49780334      -0.58823313       8.87281148       19      -0.05559427       0.06474289      -0.05479304
H        4.56823044       3.25221937       6.17385101       20       0.27978617       0.19634597       0.23671612
H        0.19719115       3.67382294       5.34108188       21      -0.04207541       0.03884687       0.06315400
H        4.65674403       2.74021799       8.62260529       22      -0.03389707      -0.02519046      -0.02315956
H        0.28557192       4.20461029       2.90919642       23       0.00287154      -0.02857494       0.04435022
H        7.85791614       5.30458614       9.21661200       24       0.03583166       0.04564667      -0.01916200
H        3.48706495       1.64065874       2.31604419       25       0.04393530      -0.04966989      -0.00038706
H        7.94246862       5.90964863       6.80947162       26      -0.06438908      -0.03462511      -0.01463803
H        3.57148720       1.03195730       4.72303069       27      -0.11756524       0.10063752      -0.03285947
H        0.16126333       4.79353704      11.16619626       28      -0.34436309      -0.19659254       0.03159216
H        4.53243494       2.15070965       0.36629127       29      -0.29164338       0.09971792      -0.00445169
H        0.37014450       6.18972534       0.57188981       30      -0.06106129      -0.06680849       0.03462328
H        4.74014044       0.75491586      10.96070558       31      -0.11122345       0.01067901       0.01399741
C        5.48562703      -2.28778813      10.06905126       32       0.13396893       0.12037131       0.16604212
C        1.11437818       9.23285654       1.46168017       33       0.13274302      -0.14204611      -0.09399049
C        6.36838710      -1.35715863       9.47480051       34       0.09207831      -0.13014570       0.29821628
C        1.99734222       8.30219917       2.05712922       35       0.09136729       0.12106848      -0.31193516
C        6.13443661      -1.03268795       8.13094305       36       0.18784431       0.25464201      -0.53160506
C        1.76330423       7.97746569       3.40146368       37       0.20294330      -0.24556179       0.47655970
C        5.08794049      -1.57710877       7.38849522       38      -0.07571463      -0.07636996      -0.00040567
C        0.71683005       8.52142584       4.14376523       39      -0.02211361       0.09805806      -0.25203142
C        4.23339086       7.08023143       8.00374361       40      -0.09837149       0.00791695      -0.05710258
C        8.60622532      -0.13528784       3.52867897       41      -0.06362256      -0.02713382       0.01512700
C        4.43481340       6.72225278       9.33513060       42      -0.11473445      -0.09505442      -0.14419398
C        0.06465980       0.22259176       2.19682429       43      -0.08649511       0.08327906       0.15794401
C        5.66396193       0.08349609       0.12313059       44      -0.08417358      -0.08714089      -0.49197799
C        1.29244067       6.86178599      11.40968370       45      -0.08815853       0.07202107       0.43534055
C        7.52636229      -0.81057704      10.25608088       46      -0.29693788       0.08667126      -0.13663875
C        3.15473789       7.75410748       1.27466521       47      -0.28643113      -0.05419296       0.17021401
C        7.37051308       0.58097525      10.87944956       48       0.06109639       0.02881068       0.05012432
C        2.99957907       6.36268579       0.65160840       49       0.03759895       0.01272225      -0.00549276
C        5.77610253       4.43907956       2.53888721       50      -0.03030857      -0.01103133       0.12008303
C        1.40565221       2.50522195       8.99193049       51      -0.04012573       0.03585969      -0.03926975
C        5.82101895       4.05794545       3.87496537       52       0.03913555      -0.00597360       0.06699713
C        1.45107040       2.88495440       7.65562124       53      -0.01242134       0.12610030      -0.01057382
C        6.25153836       4.97920224       4.84544195       54      -0.04016703      -0.03680418      -0.12158042
C        1.88069310       1.96590682       6.68726320       55       0.05205451      -0.22060281       0.02179876
C        6.64587278       6.25062688       4.40088562       56      -0.27350399      -0.53965694      -0.53426373
C        2.27461983       0.68754600       7.13154440       57      -0.06365653      -0.00474750      -0.34395292
C        6.58006906       6.55291136       3.04444737       58      -0.00145776      -0.03332829      -0.08559139
C        2.20282642       0.39156647       8.48717446       59       0.16098675      -0.21167976       0.07552943
C        6.26728970       4.62597981       6.27734045       60       0.06349818       0.13436355      -0.14257310
C        1.89710720       2.31871326       5.25483265       61       0.06657815      -0.11851717       0.05752337
C        5.33995248       3.71807741       6.80674078       62      -0.35412210      -0.27525678       0.07743917
C        0.96925439       3.22639551       4.72171384       63      -0.03948583      -0.02650253      -0.16201009
C        5.36923477       3.42723081       8.16940957       64       0.01102775      -0.02264369      -0.12721591
C        0.99874373       3.51456249       3.36197359       65      -0.08321834       0.15905041       0.03213701
C        7.15433997       4.86307030       8.50873438       66       0.02888656      -0.14171737       0.09215656
C        2.78367174       2.08205180       3.02324830       67       0.03566360       0.15154730      -0.16676086
C        7.19251587       5.20111684       7.16047688       68       0.03304708       0.02685256       0.05428711
C        2.82221951       1.74398181       4.36844505       69       0.06684286      -0.09924483       0.17155591
Br       7.31270086       0.17821788       7.21494684       70      -0.14855069      -0.07818943       0.10080986
Br       2.94168334       6.76717870       4.31784845       71      -0.14834738       0.07547507      -0.10520729
N        6.14269108       5.66719456       2.13212127       72       0.01911905       0.04661508       0.04708156
N        1.77300975       1.27770886       9.39976520       73      -0.04273542       0.02802491      -0.02887413
N        6.25839641       3.99313264       9.00303927       74       0.05894151       0.10877221      -0.09373200
N        1.88732090       2.95199092       2.53005333       75       0.12730940      -0.13867353      -0.01051298
O        6.14500480       8.52274350       0.40617978       76       0.10262200      -0.29257846      -0.01424230
O        1.77397802      -1.57751352      11.12645841       77       0.09882845       0.28624457       0.01570854
O        5.31673520       0.94617215       0.98892933       78       0.13901317      -0.12913480       0.18935922
O        0.94550200       5.99866970      10.54307708       79       0.13565628       0.13286199      -0.16289240
O        6.37044182       1.29730222      10.52868835       80      -0.03343707       0.04377683      -0.07094041
O        1.99944979       5.64730915       1.00316023       81      -0.03735176      -0.06218222       0.06992857
O        8.24441772       3.70069441       0.30580621       82       0.06122838      -0.12315217      -0.06831013
O        3.87374829       3.24370332      11.22705626       83       0.09177874       0.09044060       0.02477208
O        8.44400644       3.93872725      11.46057987       84       0.10174814       0.18206348      -0.04306196
O        4.07283724       3.00068684       0.07159881       85       0.09103197      -0.00096485      -0.04764969
86
Lattice="8.74198669 0.0 0.0 -0.00042183699901963235 9.574042840706827 0.0 -0.00010177062325989692 -2.74869422838254 11.412967201194538" Properties=species:S:1:pos:R:3:spacegroup_kinds:I:1:forces:R:3 spacegroup="P 1" unit_cell=conventional occupancy="_JSON {\"0\": {\"Cd\": 1}, \"1\": {\"Cd\": 1}, \"2\": {\"H\": 1}, \"3\": {\"H\": 1}, \"4\": {\"H\": 1}, \"5\": {\"H\": 1}, \"6\": {\"H\": 1}, \"7\": {\"H\": 1}, \"8\": {\"H\": 1}, \"9\": {\"H\": 1}, \"10\": {\"H\": 1}, \"11\": {\"H\": 1}, \"12\": {\"H\": 1}, \"13\": {\"H\": 1}, \"14\": {\"H\": 1}, \"15\": {\"H\": 1}, \"16\": {\"H\": 1}, \"17\": {\"H\": 1}, \"18\": {\"H\": 1}, \"19\": {\"H\": 1}, \"20\": {\"H\": 1}, \"21\": {\"H\": 1}, \"22\": {\"H\": 1}, \"23\": {\"H\": 1}, \"24\": {\"H\": 1}, \"25\": {\"H\": 1}, \"26\": {\"H\": 1}, \"27\": {\"H\": 1}, \"28\": {\"H\": 1}, \"29\": {\"H\": 1}, \"30\": {\"H\": 1}, \"31\": {\"H\": 1}, \"32\": {\"C\": 1}, \"33\": {\"C\": 1}, \"34\": {\"C\": 1}, \"35\": {\"C\": 1}, \"36\": {\"C\": 1}, \"37\": {\"C\": 1}, \"38\": {\"C\": 1}, \"39\": {\"C\": 1}, \"40\": {\"C\": 1}, \"41\": {\"C\": 1}, \"42\": {\"C\": 1}, \"43\": {\"C\": 1}, \"44\": {\"C\": 1}, \"45\": {\"C\": 1}, \"46\": {\"C\": 1}, \"47\": {\"C\": 1}, \"48\": {\"C\": 1}, \"49\": {\"C\": 1}, \"50\": {\"C\": 1}, \"51\": {\"C\": 1}, \"52\": {\"C\": 1}, \"53\": {\"C\": 1}, \"54\": {\"C\": 1}, \"55\": {\"C\": 1}, \"56\": {\"C\": 1}, \"57\": {\"C\": 1}, \"58\": {\"C\": 1}, \"59\": {\"C\": 1}, \"60\": {\"C\": 1}, \"61\": {\"C\": 1}, \"62\": {\"C\": 1}, \"63\": {\"C\": 1}, \"64\": {\"C\": 1}, \"65\": {\"C\": 1}, \"66\": {\"C\": 1}, \"67\": {\"C\": 1}, \"68\": {\"C\": 1}, \"69\": {\"C\": 1}, \"70\": {\"Br\": 1}, \"71\": {\"Br\": 1}, \"72\": {\"N\": 1}, \"73\": {\"N\": 1}, \"74\": {\"N\": 1}, \"75\": {\"N\": 1}, \"76\": {\"O\": 1}, \"77\": {\"O\": 1}, \"78\": {\"O\": 1}, \"79\": {\"O\": 1}, \"80\": {\"O\": 1}, \"81\": {\"O\": 1}, \"82\": {\"O\": 1}, \"83\": {\"O\": 1}, \"84\": {\"O\": 1}, \"85\": {\"O\": 1}}" energy=-568.9300537109375 free_energy=-568.9300537109375 stress="-0.0017734364373609424 5.140770099387737e-06 0.00022041186457499862 5.140770099387737e-06 0.0015811335761100054 0.0010479778284206986 0.00022041186457499862 0.0010479778284206986 -0.0016459199832752347" pbc="T T T"
Cd       6.25756336       3.53426946      11.31544657        0      -0.00318030       0.20467670      -0.12404697
Cd       1.88702566       3.46442499       0.27640822        1      -0.00220539      -0.17056668       0.12321012
H        4.97524157      -1.27721339       6.36566813        2       0.04768836      -0.00819930       0.18650745
H        0.60667078       8.27255296       5.21517413        3      -0.01010772      -0.02658249       0.10014968
H        3.43829853       6.67594243       7.46260808        4       0.05388512      -0.02075596       0.10759928
H        7.81400902       0.32843265       4.12900713        5      -0.02532016       0.05998193      -0.06177666
H        3.79647288       6.02663619       9.83084869        6       0.04739140       0.03888644       0.04208896
H        8.16898666       0.97781588       1.76152454        7       0.03185259      -0.02441065      -0.05032459
H        8.45836627      -0.74102652       9.65826380        8       0.11566117      -0.02038830       0.05702696
H        4.08710345       7.74531734       1.93305221        9       0.09406367       0.01266666      -0.07296538
H        7.80281604      -1.46660671      11.10270021       10       0.08727767       0.06170677       0.07315214
H        3.43261608       8.47149520       0.48927453       11       0.08072209      -0.07298306      -0.07280070
H        5.44889181       3.78476729       1.80006283       12       0.00289119       0.05920246      -0.02906772
H        1.07849998       3.21995854       9.79221219       13       0.02772835      -0.09927326      -0.03143544
H        5.55668049       3.06968194       4.17530482       14       0.05673949       0.18084565      -0.00381510
H        1.19013595       3.92945703       7.41145249       15       0.02423990      -0.08583346      -0.00337948
H        6.98718594       7.03083147       5.11854900       16       0.28719249       0.59845799       0.56797230
H        2.61598649      -0.05624421       6.44363240       17      -0.05645014       0.25301886       0.27439940
H        6.89878410       7.56180916       2.68797928       18      -0.01233305      -0.00799339       0.05247948
H        2.52772463      -0.55833199       8.90277984       19      -0.05003386       0.04562550      -0.05069214
H        4.59817331       3.28172452       6.20354576       20       0.27689439       0.19189978       0.23587313
H        0.22708196       3.70355640       5.37100133       21      -0.03237525       0.02829870       0.05567998
H        4.68326043       2.76890203       8.65087477       22       0.02572024       0.02555458      -0.03914189
H        0.31536366       4.23445411       2.93900218       23       0.00622933      -0.02969253       0.04859002
H        7.88773302       5.33452625       9.24661045       24       0.03193529       0.04195205      -0.02539160
H        3.51697368       1.67002502       2.34595376       25       0.03494087      -0.04324447       0.00619930
H        7.97204895       5.93944018       6.83938910       26      -0.06320693      -0.03183953      -0.01534331
H        3.60093213       1.06166711       4.75301417       27      -0.11102805       0.09701201      -0.03267229
H        0.19122060       4.82329846      11.19596087       28      -0.34244221      -0.18909982       0.02864054
H        4.56238226       2.18067085       0.39627775       29      -0.28508595       0.09130997      -0.00265965
H        0.40000280       6.21967036       0.60167835       30      -0.06974785      -0.06141247       0.02623777