66
Lattice="9.32588176 0.0 0.0 -1.2167786335752264 9.425539133049101 0.0 -3.4300253918125128 -2.292851025697067 9.892192247768783" Properties=species:S:1:pos:R:3:spacegroup_kinds:I:1:forces:R:3 spacegroup="P 1" unit_cell=conventional occupancy="_JSON {\"0\": {\"Cu\": 1}, \"1\": {\"Cu\": 1}, \"2\": {\"Cu\": 1}, \"3\": {\"Cu\": 1}, \"4\": {\"Cu\": 1}, \"5\": {\"Cu\": 1}, \"6\": {\"H\": 1}, \"7\": {\"H\": 1}, \"8\": {\"H\": 1}, \"9\": {\"H\": 1}, \"10\": {\"H\": 1}, \"11\": {\"H\": 1}, \"12\": {\"H\": 1}, \"13\": {\"H\": 1}, \"14\": {\"H\": 1}, \"15\": {\"H\": 1}, \"16\": {\"H\": 1}, \"17\": {\"H\": 1}, \"18\": {\"H\": 1}, \"19\": {\"H\": 1}, \"20\": {\"H\": 1}, \"21\": {\"H\": 1}, \"22\": {\"H\": 1}, \"23\": {\"H\": 1}, \"24\": {\"H\": 1}, \"25\": {\"H\": 1}, \"26\": {\"C\": 1}, \"27\": {\"C\": 1}, \"28\": {\"C\": 1}, \"29\": {\"C\": 1}, \"30\": {\"C\": 1}, \"31\": {\"C\": 1}, \"32\": {\"C\": 1}, \"33\": {\"C\": 1}, \"34\": {\"C\": 1}, \"35\": {\"C\": 1}, \"36\": {\"C\": 1}, \"37\": {\"C\": 1}, \"38\": {\"C\": 1}, \"39\": {\"C\": 1}, \"40\": {\"C\": 1}, \"41\": {\"C\": 1}, \"42\": {\"C\": 1}, \"43\": {\"C\": 1}, \"44\": {\"C\": 1}, \"45\": {\"C\": 1}, \"46\": {\"C\": 1}, \"47\": {\"C\": 1}, \"48\": {\"C\": 1}, \"49\": {\"C\": 1}, \"50\": {\"C\": 1}, \"51\": {\"C\": 1}, \"52\": {\"I\": 1}, \"53\": {\"I\": 1}, \"54\": {\"I\": 1}, \"55\": {\"I\": 1}, \"56\": {\"I\": 1}, \"57\": {\"I\": 1}, \"58\": {\"N\": 1}, \"59\": {\"N\": 1}, \"60\": {\"N\": 1}, \"61\": {\"N\": 1}, \"62\": {\"N\": 1}, \"63\": {\"N\": 1}, \"64\": {\"N\": 1}, \"65\": {\"N\": 1}}" energy=-408.4327392578125 free_energy=-408.4327392578125 stress="-0.003612423548474908 -0.0008987344335764647 0.0008594666724093258 -0.0008987344335764647 -0.005769881419837475 0.0012240243377164006 0.0008594666724093258 0.0012240243377164006 -0.007161753252148628" pbc="T T T"
Cu       3.23020368       4.92672176       7.53292982        0       0.14730360       0.12316251       0.00609535
Cu       1.50836834       2.14611917       2.41916348        1      -0.15089087      -0.12336254      -0.00962371
Cu       2.05299242       4.98180770       5.28005696        2       0.06646723       0.12629555       0.23880598
Cu       2.68587445       2.09097879       4.67211310        3      -0.06807153      -0.12671341      -0.23965198
Cu       0.85359456       7.39982003       5.35770093        4      -0.00244959      -0.15688494       0.06569393
Cu       3.88492478      -0.32699979       4.59455359        5       0.00078117       0.15756783      -0.06709929
H       -0.49168022      -2.00043316       9.31795933        6      -0.08460742       0.00536485      -0.03586498
H        5.23020356       9.07333376       0.63402259        7       0.09019434      -0.00033031       0.03407677
H        1.11596883       7.63607276       1.06485296        8      -0.01411657      -0.02546724      -0.00037430
H        3.62246135      -0.56323167       8.88710666        9      -0.00674407       0.03526486      -0.02828224
H       -0.35294049       5.85708150       1.91166283       10      -0.11710420       0.07321125      -0.09969023
H        5.09151047       1.21608682       8.04033682       11       0.08998446      -0.08063230       0.08212410
H        7.43994587       3.99844662       2.53781878       12      -0.04746216      -0.01786138      -0.09530563
H       -2.70210758       3.07454319       7.41424281       13       0.04662106       0.02116048       0.08298808
H        5.44892487       3.50636871       1.08027570       14       0.01275181       0.01786797      -0.03607263
H       -0.71055063       3.56676459       8.87186144       15      -0.02779799      -0.02135969       0.03575382
H        1.67360782       2.61293247       8.90807706       16       0.01282302      -0.02765068       0.11946324
H        3.06443211       4.46032770       1.04405329       17      -0.01046157       0.02828587      -0.12593849
H       -0.37297382      -0.87289365       7.55886436       18      -0.15339476      -0.06498198       0.01777674
H        5.11088196       7.94584208       2.39313989       19       0.09142168       0.07270521      -0.04915810
H       -0.64274803       0.89948845       5.86032945       20      -0.20270510      -0.09766367       0.03213217
H        5.38097501       6.17360112       4.09161183       21       0.18970868       0.08573662      -0.02547275
H        6.49971903       1.10395782       4.62920302       22       0.12673318      -0.09046714       0.05301861
H       -1.76086517       5.96904728       5.32279868       23      -0.12995459       0.08780147      -0.05252945
H        3.63773402       7.36919508       6.76017456       24       0.29754907       0.16267514       0.19126616
H        1.10022885      -0.29633452       3.19158185       25      -0.28417897      -0.15366271      -0.19238265
C       -2.54611459       6.74175822       9.27443701       26      -0.09774965      -0.14270784       0.05724797
C        7.28504904       0.33106549       0.67743169       27       0.02509922       0.14352393      -0.10845877
C        0.55286973       7.98514713       0.20538989       28       0.17134914       0.03067558       0.09009030
C        4.18472652      -0.91177359       9.74591145       29      -0.11793715      -0.05240672      -0.03650087
C       -4.09820932       5.19108384       9.59013295       30      -0.19624406      -0.14792302       0.14386925
C        8.83705141       1.88208105       0.36182091       31       0.09927149       0.13639961      -0.17495626
C        7.83048637       6.36915247       0.14099677       32       0.31401765       0.30099308      -0.08757365
C       -3.09411935       0.70504115       9.81106742       33      -0.23805234      -0.31364030       0.13282585
C        8.10074145       5.62568173       1.29616875       34      -0.04313524      -0.15282063      -0.02549075
C       -3.36347755       1.44733889       8.65592990       35       0.07529081       0.18104181       0.02662560
C        7.24061959       4.59080342       1.64417667       36      -0.04674065      -0.13089900       0.02128319
C       -2.50239803       2.48207711       8.30728675       37       0.01566838       0.12238522      -0.01192392
C        6.13457849       4.31778600       0.83532334       38       0.05201343      -0.05629549      -0.02568067
C       -1.39818696       2.75647993       9.11668055       39      -0.00194316       0.04453652       0.04860563
C        2.50955213       2.79479074       9.58556818       40      -0.02112806       0.14047620       0.00541395
C        2.22887584       4.27810791       0.36607428       41      -0.00037536      -0.13411292      -0.00743708
C       -2.42052072      -1.58931224       7.32415017       42      -0.04586085       0.01675362      -0.03686869
C        7.15907088       8.66313555       2.62785461       43      -0.05297560      -0.08365818       0.05330747
C       -1.33156279      -0.75640556       7.05189497       44       0.28109187       0.14732276       0.00579427
C        6.06717322       7.82948325       2.89964742       45      -0.10880323      -0.12284850       0.04512660
C       -1.47361051       0.23021838       6.08769462       46      -0.00489905       0.10123678      -0.04247383
C        6.21109067       6.84298504       3.86438336       47       0.02095664      -0.08150870       0.03054440
C        6.65045590       0.34682046       5.40054976       48       0.16390981       0.26005995      -0.11511034
C       -1.91221369       6.72608867       4.55158820       49      -0.17351003      -0.23977935       0.09044491
C        5.72416323      -1.41781214       6.59301856       50      -0.22018865      -0.09142846      -0.10010088
C       -0.98586085       8.49110263       3.35896885       51       0.19883978       0.08566161       0.09093194
I        0.80379964       5.85350407       7.49681660       52      -0.14013138      -0.00035994      -0.04866225
I        3.93500716       1.21933047       2.45529118       53       0.13892825       0.00059522       0.04845114
I        2.47195879       6.72038217       3.36795367       54       0.00627512       0.03887057      -0.10884809
I        2.26617994       0.35285815       6.58431725       55      -0.00688308      -0.03974619       0.10796797
I        0.26904926       3.23853561       4.40394359       56      -0.16093704      -0.01305581       0.08799504
I        4.46880752       3.83420304       5.54820495       57       0.16305897       0.01295833      -0.08837068
N       -3.53847286       6.84973751       8.32757863       58      -0.16486387       0.16565549      -0.29207477
N        8.27531011       0.22340139       1.62430725       59       0.19296655      -0.16318946       0.30598596
N        4.82236094       5.90781316       8.51744282       60       0.19353983      -0.31316444       0.23161396
N       -0.08737241       1.16517697       1.43445184       61      -0.09277517       0.34410948      -0.19188169
N        3.33608129       3.79609141       9.23656231       62      -0.08888831      -0.15945704       0.23833737
N        1.40274895       3.27674769       0.71552845       63       0.04959128       0.16363576      -0.27121586
N        5.61052281      -0.47242087       5.64244986       64       0.13195440      -0.15217787       0.32601547
N       -0.87213162       7.54524762       4.30910375       65      -0.14220110       0.14422692      -0.31659773
66
Lattice="9.32588176 0.0 0.0 -1.2167786335752264 9.425539133049101 0.0 -3.4300253918125128 -2.292851025697067 9.892192247768783" Properties=species:S:1:pos:R:3:spacegroup_kinds:I:1:forces:R:3 spacegroup="P 1" unit_cell=conventional occupancy="_JSON {\"0\": {\"Cu\": 1}, \"1\": {\"Cu\": 1}, \"2\": {\"Cu\": 1}, \"3\": {\"Cu\": 1}, \"4\": {\"Cu\": 1}, \"5\": {\"Cu\": 1}, \"6\": {\"H\": 1}, \"7\": {\"H\": 1}, \"8\": {\"H\": 1}, \"9\": {\"H\": 1}, \"10\": {\"H\": 1}, \"11\": {\"H\": 1}, \"12\": {\"H\": 1}, \"13\": {\"H\": 1}, \"14\": {\"H\": 1}, \"15\": {\"H\": 1}, \"16\": {\"H\": 1}, \"17\": {\"H\": 1}, \"18\": {\"H\": 1}, \"19\": {\"H\": 1}, \"20\": {\"H\": 1}, \"21\": {\"H\": 1}, \"22\": {\"H\": 1}, \"23\": {\"H\": 1}, \"24\": {\"H\": 1}, \"25\": {\"H\": 1}, \"26\": {\"C\": 1}, \"27\": {\"C\": 1}, \"28\": {\"C\": 1}, \"29\": {\"C\": 1}, \"30\": {\"C\": 1}, \"31\": {\"C\": 1}, \"32\": {\"C\": 1}, \"33\": {\"C\": 1}, \"34\": {\"C\": 1}, \"35\": {\"C\": 1}, \"36\": {\"C\": 1}, \"37\": {\"C\": 1}, \"38\": {\"C\": 1}, \"39\": {\"C\": 1}, \"40\": {\"C\": 1}, \"41\": {\"C\": 1}, \"42\": {\"C\": 1}, \"43\": {\"C\": 1}, \"44\": {\"C\": 1}, \"45\": {\"C\": 1}, \"46\": {\"C\": 1}, \"47\": {\"C\": 1}, \"48\": {\"C\": 1}, \"49\": {\"C\": 1}, \"50\": {\"C\": 1}, \"51\": {\"C\": 1}, \"52\": {\"I\": 1}, \"53\": {\"I\": 1}, \"54\": {\"I\": 1}, \"55\": {\"I\": 1}, \"56\": {\"I\": 1}, \"57\": {\"I\": 1}, \"58\": {\"N\": 1}, \"59\": {\"N\": 1}, \"60\": {\"N\": 1}, \"61\": {\"N\": 1}, \"62\": {\"N\": 1}, \"63\": {\"N\": 1}, \"64\": {\"N\": 1}, \"65\": {\"N\": 1}}" energy=-408.43121337890625 free_energy=-408.43121337890625 stress="-0.003342246636748314 -0.0008405513945035636 0.0010161629179492593 -0.0008405513945035636 -0.005645474884659052 0.0011846428969874978 0.0010161629179492593 0.0011846428969874978 -0.007031313143670559" pbc="T T T"
Cu       3.25963327       4.89701698       7.56282824        0       0.14736672       0.12151493       0.00627246
Cu       1.53817675       2.11624120       2.44913576        1      -0.15251929      -0.12056116      -0.01336786
Cu       2.08267275       4.95190330       5.30999499        2       0.06652188       0.12674519       0.23860936
Cu       2.71585747       2.06109176       4.70208019        3      -0.06855492      -0.12701541      -0.23959666
Cu       0.88338474       7.36987839       5.38702224        4      -0.00172712      -0.15767853       0.06762637
Cu       3.91368856      -0.35686300       4.62449958        5       0.00182047       0.15798503      -0.06868037
H       -0.46212883      -2.03020468       9.34771802        6      -0.08133690       0.00841879      -0.03506126
H        5.25379366       9.04340996       0.66369152        7       0.23647709       0.10360907       0.04840095
H        1.14486137       7.60711004       1.09391486        8       0.00578259      -0.04016298       0.03049567
H        3.65123350      -0.59284418       8.91625876        9       0.00865386       0.02820170      -0.00510736
H       -0.32446695       5.82751857       1.94162949       10      -0.10531870       0.07422834      -0.09501442
H        5.11994205       1.18639507       8.07015119       11       0.09505191      -0.07769622       0.08086529
H        7.46985108       3.96846578       2.56774085       12      -0.05128409      -0.01286509      -0.10500015
H       -2.67392883       3.04516413       7.44402526       13       0.04870712       0.02354651       0.08164060
H        5.47809260       3.47670433       1.11024894       14      -0.00079500       0.00149181      -0.02912242
H       -0.68072209       3.53785045       8.90145011       15      -0.06078719      -0.05411007       0.04199624
H        1.70346419       2.58323310       8.93798479       16      -0.08125897      -0.03904835       0.05023666
H        3.09429116       4.43040996       1.07365112       17      -0.00650864       0.03058144      -0.12553649
H       -0.34335020      -0.90263778       7.58884572       18      -0.16116543      -0.06589207       0.01310050
H        5.14073350       7.91620404       2.42287440       19       0.08775868       0.07010685      -0.04956822
H       -0.61299432       0.86958830       5.89016703       20      -0.19656345      -0.08473381       0.02731767
H        5.41061499       6.14376435       4.12148755       21       0.19319361       0.08830046      -0.02682768
H        6.52912360       1.07400964       4.65905736       22       0.11600390      -0.07656610       0.03920010
H       -1.73120135       5.93913334       5.35277863       23      -0.12952073       0.09094656      -0.05580029
H        3.66739997       7.33957991       6.79013196       24       0.25854170       0.13806209       0.19318949
H        1.12978195      -0.32593652       3.22149978       25      -0.28077739      -0.15046223      -0.19517344
C       -2.51644376       6.71204827       9.30436837       26      -0.11929604      -0.14520761       0.04379588
C        7.31494354       0.30170499       0.70740985       27      -0.13775343       0.04562721      -0.12862757
C        0.58248298       7.95538371       0.23511740       28       0.14681536       0.04100854       0.05909079
C        4.21404169      -0.94107196       9.77588738       29      -0.15600681      -0.05721624      -0.06926015
C       -4.06879236       5.16122990       9.61964659       30      -0.18131551      -0.14750320       0.15359509
C        8.86544220       1.85214860       0.39165012       31       0.13917917       0.16421859      -0.17322561
C        7.86018289       6.33932545       0.17054445       32       0.28631783       0.28261599      -0.09207317
C       -3.06687163       0.67522416       9.84096170       33      -0.16423738      -0.28090829       0.14344013
C        8.13010397       5.59575238       1.32565050       34      -0.05096232      -0.15291172      -0.01994290
C       -3.33458184       1.41744446       8.68543694       35       0.06521244       0.18731253       0.02916820
C        7.26998032       4.56123349       1.67411915       36      -0.08114450      -0.14248550      -0.00677694
C       -2.47352924       2.45295629       8.33697590       37      -0.00927708       0.09573358      -0.01310323
C        6.16272914       4.28804024       0.86500548       38       0.07178473      -0.00959837      -0.04091210
C       -1.36981974       2.72675014       9.14601820       39       0.06179260       0.08818337       0.06176404
C        2.53475862       2.76604640       9.61506099       40       0.17638302       0.16715287       0.11932577
C        2.25877003       4.24866875       0.39578672       41      -0.05091766      -0.16455235      -0.02054617
C       -2.39082835      -1.61775832       7.35357515       42      -0.12822440      -0.04575930      -0.02582460
C        7.18700252       8.63354089       2.65772192       43       0.05196290      -0.05204555       0.06196806
C       -1.30212697      -0.78627986       7.08166381       44       0.30443472       0.19462675      -0.01707114
C        6.09702026       7.79976985       2.92920175       45      -0.14846662      -0.13930623       0.05154280
C       -1.44419330       0.20155308       6.11765612       46      -0.05897853       0.06459833      -0.04326859
C        6.24084701       6.81319586       3.89423291       47       0.02902347      -0.08486788       0.03428973
C        6.67822145       0.31749036       5.43046678       48       0.26767802       0.26842362      -0.08541383
C       -1.88236726       6.69615756       4.58133846       49      -0.18220815      -0.23845276       0.08989407
C        5.75196981      -1.44771411       6.62211545       50      -0.10332763      -0.05752710      -0.07220725
C       -0.95592356       8.46123073       3.38866816       51       0.14534569       0.08421910       0.07609114
I        0.83331793       5.82375636       7.52681269       52      -0.14008448      -0.00003818      -0.04973469
I        3.96471674       1.18939240       2.48526240       53       0.13851917       0.00058730       0.04820831
I        2.50189217       6.69053756       3.39776214       54       0.00636257       0.03870567      -0.10876187
I        2.29529580       0.32288425       6.61407277       55      -0.00635998      -0.03962145       0.10857279
I        0.29894867       3.20862638       4.43386818       56      -0.16115835      -0.01323910       0.08798013
I        4.49861485       3.80421969       5.57813316       57       0.16266192       0.01386510      -0.08820608
N       -3.50947180       6.82011137       8.35746023       58      -0.14189667       0.18946822      -0.30032468
N        8.30475183       0.19504998       1.65411642       59       0.17091903      -0.22724701       0.34258980
N        4.85189031       5.87790967       8.54729455       60       0.18817444      -0.30161995       0.21820518
N       -0.05763987       1.13531102       1.46413762       61      -0.09685165       0.35853171      -0.19773608
N        3.36554533       3.76615795       9.26638446       62      -0.13996115      -0.18225914       0.23596311
N        1.43182682       3.24717563       0.74539722       63       0.03241185       0.16958342      -0.29023033
N        5.64020183      -0.50217463       5.67178929       64       0.07047570      -0.17416793       0.32554936
N       -0.84218147       7.51554382       4.33882672       65      -0.14478862       0.14512643      -0.32288179
66
Lattice="9.32588176 0.0 0.0 -1.2167786335752264 9.425539133049101 0.0 -3.4300253918125128 -2.292851025697067 9.892192247768783" Properties=species:S:1:pos:R:3:spacegroup_kinds:I:1:forces:R:3 spacegroup="P 1" unit_cell=conventional occupancy="_JSON {\"0\": {\"Cu\": 1}, \"1\": {\"Cu\": 1}, \"2\": {\"Cu\": 1}, \"3\": {\"Cu\": 1}, \"4\": {\"Cu\": 1}, \"5\": {\"Cu\": 1}, \"6\": {\"H\": 1}, \"7\": {\"H\": 1}, \"8\": {\"H\": 1}, \"9\": {\"H\": 1}, \"10\": {\"H\": 1}, \"11\": {\"H\": 1}, \"12\": {\"H\": 1}, \"13\": {\"H\": 1}, \"14\": {\"H\": 1}, \"15\": {\"H\": 1}, \"16\": {\"H\": 1}, \"17\": {\"H\": 1}, \"18\": {\"H\": 1}, \"19\": {\"H\": 1}, \"20\": {\"H\": 1}, \"21\": {\"H\": 1}, \"22\": {\"H\": 1}, \"23\": {\"H\": 1}, \"24\": {\"H\": 1}, \"25\": {\"H\": 1}, \"26\": {\"C\": 1}, \"27\": {\"C\": 1}, \"28\": {\"C\": 1}, \"29\": {\"C\": 1}, \"30\": {\"C\": 1}, \"31\": {\"C\": 1}, \"32\": {\"C\": 1}, \"33\": {\"C\": 1}, \"34\": {\"C\": 1}, \"35\": {\"C\": 1}, \"36\": {\"C\": 1}, \"37\": {\"C\": 1}, \"38\": {\"C\": 1}, \"39\": {\"C\": 1}, \"40\": {\"C\": 1}, \"41\": {\"C\": 1}, \"42\": {\"C\": 1}, \"43\": {\"C\": 1}, \"44\": {\"C\": 1}, \"45\": {\"C\": 1}, \"46\": {\"C\": 1}, \"47\": {\"C\": 1}, \"48\": {\"C\": 1}, \"49\": {\"C\": 1}, \"50\": {\"C\": 1}, \"51\": {\"C\": 1}, \"52\": {\"I\": 1}, \"53\": {\"I\": 1}, \"54\": {\"I\": 1}, \"55\": {\"I\": 1}, \"56\": {\"I\": 1}, \"57\": {\"I\": 1}, \"58\": {\"N\": 1}, \"59\": {\"N\": 1}, \"60\": {\"N\": 1}, \"61\": {\"N\": 1}, \"62\": {\"N\": 1}, \"63\": {\"N\": 1}, \"64\": {\"N\": 1}, \"65\": {\"N\": 1}}" energy=-408.4239501953125 free_energy=-408.4239501953125 stress="-0.0032603032886981964 -0.0006431244546547532 0.0008550327038392425 -0.0006431244546547532 -0.00545383570715785 0.001041895360685885 0.0008550327038392425 0.001041895360685885 -0.007022261153906584" pbc="T T T"
Cu       3.28901093       4.86745853       7.59271013        0       0.14765106       0.12082827       0.00381431
Cu       1.56796937       2.08635809       2.47906237        1      -0.16244450      -0.11849232      -0.01372236
Cu       2.11260838       4.92198373       5.33998447        2       0.06618399       0.12635303       0.23817876
Cu       2.74580800       2.03112577       4.73206628        3      -0.07018973      -0.12607172      -0.23794988
Cu       0.91300588       7.33997051       5.41700150        4      -0.00448221      -0.15792158       0.06647609
Cu       3.94347701      -0.38681119       4.65440449        5      -0.00047787       0.15869820      -0.07138919
H       -0.43225517      -2.06007398       9.37704328        6      -0.09385310      -0.00061981      -0.03472520
H        5.28366700       9.01345763       0.69367762        7       0.20684929       0.08362719       0.04435940
H        1.17474677       7.57781161       1.12388303        8       0.00161470      -0.03755783       0.02478585
H        3.68019354      -0.62273793       8.94594339        9       0.02103464       0.02218600       0.01036534
H       -0.29859962       5.79775018       1.97101093       10      -0.01558279       0.09963942      -0.04174486
H        5.14989753       1.15665174       8.09998418       11       0.09638092      -0.07857408       0.08198678
H        7.49924186       3.93857970       2.59755646       12      -0.04896680      -0.01556979      -0.09857518
H       -2.64433720       3.01521684       7.47389151       13       0.04547008       0.02475940       0.07784561
H        5.50721388       3.44756736       1.13930162       14      -0.00312280      -0.00442098      -0.02372300
H       -0.65114814       3.50793073       8.93139468       15      -0.10509299      -0.08799795       0.04882286
H        1.73303882       2.55371295       8.96772753       16      -0.08078431      -0.04201999       0.05093496
H        3.12425269       4.40055091       1.10363778       17      -0.00825414       0.03553366      -0.13403343
H       -0.31347525      -0.93239573       7.61883438       18      -0.19466668      -0.06389539      -0.00216442
H        5.17060258       7.88636257       2.45282982       19      -0.35417113       0.11142693      -0.25300571
H       -0.58312203       0.83985135       5.92005346       20      -0.19877459      -0.08711842       0.02567746
H        5.44050113       6.11378016       4.15144774       21       0.19698521       0.06695534      -0.00712909
H        6.55877397       1.04406921       4.68899287       22       0.11040667      -0.06737491       0.02488476
H       -1.70189423       5.90922927       5.38264244       23      -0.14600289       0.09484076      -0.07080625
H        3.69736099       7.30981616       6.82009413       24       0.18735214       0.09318112       0.20401958
H        1.15968617      -0.35589742       3.25145891       25      -0.28801501      -0.15291409      -0.20118408
C       -2.48723550       6.68222550       9.33409811       26      -0.08634421      -0.10912767       0.03680718
C        7.34338510       0.27178130       0.73736486       27      -0.06119281       0.09373185      -0.12457683
C        0.61233033       7.92630985       0.26494548       28       0.12355882       0.00467934       0.06853732
C        4.24382375      -0.97102880       9.80585511       29      -0.18077460      -0.04670762      -0.08556464
C       -4.03918152       5.13159709       9.64857883       30      -0.18226424      -0.17658766       0.19715400
C        8.89508363       1.82381303       0.42139801       31       0.10596351       0.08383013      -0.13707653
C        7.88832746       6.30937226       0.19991456       32       0.35638279       0.30573255      -0.07007545
C       -3.03743657       0.64527682       9.87085513       33      -0.13763592      -0.24243292       0.13637859
C        8.15983705       5.56591030       1.35547494       34      -0.15516677      -0.16854787      -0.08793579
C       -3.30468813       1.38801409       8.71537458       35       0.02974905       0.15173975       0.03311775
C        7.29986467       4.53133445       1.70408077       36      -0.09122068      -0.13913032      -0.01984954
C       -2.44447616       2.42313355       8.36690159       37      -0.04754718       0.10403390      -0.05057959
C        6.19231960       4.25846366       0.89485964       38       0.07881258      -0.00407214      -0.04809394
C       -1.34353331       2.69722254       9.17591019       39       0.20889647       0.14723651       0.10677432
C        2.56465164       2.73606599       9.64456285       40       0.16221760       0.16020113       0.12247992
C        2.28855875       4.21926392       0.42570539       41      -0.08977410      -0.18064445      -0.02868578
C       -2.36131626      -1.64514609       7.38330416       42      -0.23950897      -0.14587262      -0.00241876
C        7.21587983       8.60415979       2.68762435       43      -0.27782065      -0.23179501       0.11288439
C       -1.27334813      -0.81587951       7.11130242       44       0.37883651       0.21733055       0.00003541
C        6.11022127       7.77109975       2.95900655       45       0.85687947      -0.03796019       0.31498358
C       -1.41437557       0.17165654       6.14723680       46      -0.09150666       0.08225432      -0.07273588
C        6.27020300       6.78379224       3.92418602       47      -0.18230435      -0.03815109      -0.06502531
C        6.70748421       0.28751916       5.45967313       48       0.29365024       0.24926859      -0.04560179
C       -1.85481260       6.66632007       4.61107261       49      -0.06110048      -0.18287677       0.08350664
C        5.77851065      -1.47748656       6.65205324       50       0.07154539       0.01343007      -0.05649205
C       -0.92625962       8.43135354       3.41861308       51       0.06451690       0.07043630       0.04843606
I        0.86295110       5.79384966       7.55675084       52      -0.14062306      -0.00024538      -0.04937474
I        3.98910147       1.15951076       2.51522699       53       0.15437010      -0.00438894       0.04659377
I        2.53075776       6.66065924       3.42773685       54       0.00595117       0.03720378      -0.10873691
I        2.32527433       0.29295163       6.64401821       55      -0.00787465      -0.03946769       0.10976988
I        0.32836038       3.17866102       4.46385258       56      -0.16098693      -0.01191860       0.08849749
I        4.52837937       3.77427280       5.60812160       57       0.16234490       0.01353245      -0.08742976
N       -3.47991286       6.79053848       8.38741632       58      -0.14619678       0.22656339      -0.33717561
N        8.33458526       0.16519795       1.68395269       59       0.16414599      -0.22520289       0.33729503
N        4.88177791       5.84792492       8.57706507       60       0.17919299      -0.28092873       0.19146830
N       -0.02811727       1.10549111       1.49410656       61      -0.09760940       0.38161135      -0.21955286
N        3.39513289       3.73620909       9.29563451       62      -0.15579857      -0.18541999       0.22903365
N        1.46178688       3.21728321       0.77527666       63       0.03392620       0.17302586      -0.29122162
N        5.66916385      -0.53195106       5.70172888       64       0.05124080      -0.17119864       0.31446660
N       -0.81260832       7.48566605       4.36865352       65      -0.19397670       0.10935480      -0.30201626
66
Lattice="9.32588176 0.0 0.0 -1.2167786335752264 9.425539133049101 0.0 -3.4300253918125128 -2.292851025697067 9.892192247768783" Properties=species:S:1:pos:R:3:spacegroup_kinds:I:1:forces:R:3 spacegroup="P 1" unit_cell=conventional occupancy="_JSON {\"0\": {\"Cu\": 1}, \"1\": {\"Cu\": 1}, \"2\": {\"Cu\": 1}, \"3\": {\"Cu\": 1}, \"4\": {\"Cu\": 1}, \"5\": {\"Cu\": 1}, \"6\": {\"H\": 1}, \"7\": {\"H\": 1}, \"8\": {\"H\": 1}, \"9\": {\"H\": 1}, \"10\": {\"H\": 1}, \"11\": {\"H\": 1}, \"12\": {\"H\": 1}, \"13\": {\"H\": 1}, \"14\": {\"H\": 1}, \"15\": {\"H\": 1}, \"16\": {\"H\": 1}, \"17\": {\"H\": 1}, \"18\": {\"H\": 1}, \"19\": {\"H\": 1}, \"20\": {\"H\": 1}, \"21\": {\"H\": 1}, \"22\": {\"H\": 1}, \"23\": {\"H\": 1}, \"24\": {\"H\": 1}, \"25\": {\"H\": 1}, \"26\": {\"C\": 1}, \"27\": {\"C\": 1}, \"28\": {\"C\": 1}, \"29\": {\"C\": 1}, \"30\": {\"C\": 1}, \"31\": {\"C\": 1}, \"32\": {\"C\": 1}, \"33\": {\"C\": 1}, \"34\": {\"C\": 1}, \"35\": {\"C\": 1}, \"36\": {\"C\": 1}, \"37\": {\"C\": 1}, \"38\": {\"C\": 1}, \"39\": {\"C\": 1}, \"40\": {\"C\": 1}, \"41\": {\"C\": 1}, \"42\": {\"C\": 1}, \"43\": {\"C\": 1}, \"44\": {\"C\": 1}, \"45\": {\"C\": 1}, \"46\": {\"C\": 1}, \"47\": {\"C\": 1}, \"48\": {\"C\": 1}, \"49\": {\"C\": 1}, \"50\": {\"C\": 1}, \"51\": {\"C\": 1}, \"52\": {\"I\": 1}, \"53\": {\"I\": 1}, \"54\": {\"I\": 1}, \"55\": {\"I\": 1}, \"56\": {\"I\": 1}, \"57\": {\"I\": 1}, \"58\": {\"N\": 1}, \"59\": {\"N\": 1}, \"60\": {\"N\": 1}, \"61\": {\"N\": 1}, \"62\": {\"N\": 1}, \"63\": {\"N\": 1}, \"64\": {\"N\": 1}, \"65\": {\"N\": 1}}" energy=-408.42388916015625 free_energy=-408.42388916015625 stress="-0.003311709500849247 -0.0006836199900135398 0.000837945903185755 -0.0006836199900135398 -0.005517405923455954 0.0010535621549934149 0.000837945903185755 0.0010535621549934149 -0.007032213266938925" pbc="T T T"