66
Lattice="8.2206581 0.0 0.0 -1.2579284729291065 8.097900258051103 0.0 -0.20168743301275707 -4.129020366585195 11.102834865495304" Properties=species:S:1:pos:R:3:spacegroup_kinds:I:1:forces:R:3 spacegroup="P 1" unit_cell=conventional occupancy="_JSON {\"0\": {\"Zn\": 1}, \"1\": {\"Zn\": 1}, \"2\": {\"H\": 1}, \"3\": {\"H\": 1}, \"4\": {\"H\": 1}, \"5\": {\"H\": 1}, \"6\": {\"H\": 1}, \"7\": {\"H\": 1}, \"8\": {\"H\": 1}, \"9\": {\"H\": 1}, \"10\": {\"H\": 1}, \"11\": {\"H\": 1}, \"12\": {\"H\": 1}, \"13\": {\"H\": 1}, \"14\": {\"H\": 1}, \"15\": {\"H\": 1}, \"16\": {\"H\": 1}, \"17\": {\"H\": 1}, \"18\": {\"C\": 1}, \"19\": {\"C\": 1}, \"20\": {\"C\": 1}, \"21\": {\"C\": 1}, \"22\": {\"C\": 1}, \"23\": {\"C\": 1}, \"24\": {\"C\": 1}, \"25\": {\"C\": 1}, \"26\": {\"C\": 1}, \"27\": {\"C\": 1}, \"28\": {\"C\": 1}, \"29\": {\"C\": 1}, \"30\": {\"C\": 1}, \"31\": {\"C\": 1}, \"32\": {\"C\": 1}, \"33\": {\"C\": 1}, \"34\": {\"C\": 1}, \"35\": {\"C\": 1}, \"36\": {\"C\": 1}, \"37\": {\"C\": 1}, \"38\": {\"N\": 1}, \"39\": {\"N\": 1}, \"40\": {\"N\": 1}, \"41\": {\"N\": 1}, \"42\": {\"N\": 1}, \"43\": {\"N\": 1}, \"44\": {\"N\": 1}, \"45\": {\"N\": 1}, \"46\": {\"N\": 1}, \"47\": {\"N\": 1}, \"48\": {\"N\": 1}, \"49\": {\"N\": 1}, \"50\": {\"N\": 1}, \"51\": {\"N\": 1}, \"52\": {\"N\": 1}, \"53\": {\"N\": 1}, \"54\": {\"N\": 1}, \"55\": {\"N\": 1}, \"56\": {\"N\": 1}, \"57\": {\"N\": 1}, \"58\": {\"N\": 1}, \"59\": {\"N\": 1}, \"60\": {\"N\": 1}, \"61\": {\"N\": 1}, \"62\": {\"N\": 1}, \"63\": {\"N\": 1}, \"64\": {\"N\": 1}, \"65\": {\"N\": 1}}" energy=-458.5600891113281 free_energy=-458.5600891113281 stress="-0.009041035547852516 0.0015881333965808153 -3.319120514788665e-05 0.0015881333965808153 -0.03125771880149841 -0.010237514972686768 -3.319120514788665e-05 -0.010237514972686768 -0.008953562006354332" pbc="T T T"
Zn       1.10464755       5.84886958       5.77806779        0       0.34287179      -0.33773053       0.43448544
Zn       5.65319150      -1.82573318       5.35889752        1      -0.30329219       0.09332700      -0.32753226
H        2.42754635      -2.17113107       8.85720942        2       0.15587750       0.13470531      -0.11205820
H        4.31685664       6.13574423       2.27793357        3       0.01036488      -0.53594071       0.11621869
H        2.68107884      -3.67553151      10.79022009        4      -0.00070716      -0.68579227      -1.51086116
H        4.08329221       7.69494082       0.31447669        5       0.00460965      -0.37565324      -0.19977139
H        1.67617895       1.10947485       7.93216415        6      -0.29426506       1.13747406       0.17211856
H        5.09014128       2.81246916       3.18098098        7       0.07354160       0.85961455       0.12637284
H        1.40381873       2.86540973       6.12032800        8       0.02927921      -0.29203045      -0.81209403
H        5.35510833       1.14900291       5.01137051        9      -0.24925308      -0.28557122      -1.18609166
H        1.79478669       0.65908568       5.51897588       10      -0.06901004      -0.00999485      -0.34947997
H        4.97431961       3.31568270       5.60808172       11       0.07179956      -0.32556713      -0.72747529
H        0.74415115       2.28427363       3.88589641       12       0.32377437      -0.65224701      -0.37209541
H        6.01878419       1.69965163       7.20755371       13      -0.10320920       0.06757201       0.29955685
H       -0.37469969       7.21197229       0.97318187       14      -0.14426316      -0.17365697      -0.96622574
H        7.10960175      -3.19747612      10.14185991       15      -0.08944426      -0.13948876      -0.12009043
H        0.63824997       5.73378901       2.72368219       16      -0.12496629      -0.16903166      -0.20570081
H        6.11534532      -1.79131498       8.36255353       17      -0.33966720       1.34982896       0.21431604
C        2.59437086      -3.22021315       8.64909460       18      -0.15912846      -0.53689075       2.08297276
C        4.18575050       7.18299485       2.45371783       19       0.04078490       1.27651393      -0.93036860
C        1.43805365       3.98486179       9.73100664       20       0.09287209       1.81849098       1.62919426
C        5.33226522      -0.05603358       1.33339344       21      -0.01691229       0.12714556       1.70328069
C        1.60399478       2.62343907       9.53009450       22      -0.28382382      -0.66890532      -0.87513912
C        5.19255628       1.33232702       1.56923780       23      -0.10642992       0.64558154       0.87693727
C        1.56405182       2.20963641       8.15443922       24       0.41286567      -2.15342736       0.78968906
C        5.21923366       1.78186992       2.95007072       25      -0.39099672      -0.60291040      -2.29668093
C        1.41904241       3.12438741       7.15100607       26       0.39315447       0.58831155       0.81257534
C        5.31094603       0.83891681       3.92431141       27       0.33018389       1.18840230       2.64804363
C        1.59917186       0.37235878       4.47801246       28       0.27909943       0.21366367       0.34905151
C        5.20554688       3.60847185       6.60694112       29       0.21718897      -1.92857599       1.11345088
C        1.04193248       1.26168538       3.55483369       30       0.14276339       1.00232017       2.55171800
C        5.74140855       2.70010699       7.55437841       31      -0.18558815       0.00757466      -1.61981308
C        0.79267177       0.81299749       2.29483079       32      -0.92361355       0.87419021      -2.28983259
C        5.97307489       3.13252052       8.85384421       33      -0.18308757       1.27163029      -0.27326956
C        1.10694106      -0.48463187       1.93230850       34       0.60263872      -1.76306093       1.84982991
C        5.63912501       4.48560566       9.14883363       35       0.07649276       0.21098591      -0.06917512
C        0.36022122       6.76082385       2.92454377       36       0.58586979       0.67037863      -0.14128420
C        6.36271940      -2.79080133       8.15775199       37       0.41653633      -2.09203911       0.39811608
N        3.97588617      -0.98986358       6.44529020       38       0.08929226      -0.08592363      -0.45049697
N        2.75346667       4.92139990       4.65279376       39       0.22198555       2.17276192       3.87585354
N        4.05860023      -0.38074339       7.47014907       40       0.38207063       0.84968811       2.32499027
N        2.68289095       4.37858680       3.64336935       41      -0.36438626      -3.60611868      -6.53264427
N        4.15390223       0.18583690       8.51933363       42      -0.29665935      -0.32694861      -1.89147902
N        2.64090561       3.78163397       2.57671201       43       0.09013975       1.02579820       2.77459192
N        0.94028203      -1.17060965       7.03933185       44       0.48328519       0.10234926       0.26548454
N        5.83898807       5.15819099       4.03433203       45       1.58861840      -0.93805993       0.78454989
N       -0.12695226      -0.81418724       6.66325240       46       2.26911855      -0.94084471       0.38931388
N        6.90798621       4.75662791       4.46038497       47      -3.02613473       1.35306072      -1.03112185
N        7.06881281      -0.43860661       6.27287517       48      -2.70481968       1.05078757      -0.76627743
N       -0.28502270       4.35224060       4.84965057       49       1.32358885      -0.54419339       0.34629425
N        1.34688310       4.45356003       7.41882592       50      -0.42629087      -0.02845395      -2.23323441
N        5.44207831      -0.46248715       3.72915218       51       0.06402744      -1.52565074      -0.87573779
N        1.67942426       1.79084062      10.66025034       52       0.23871967       0.68103904       0.29940051
N        5.03585894       2.16081030       0.45243187       53       0.05663714      -0.49673542      -0.05069613
N        1.81513963       0.55674181      10.50993912       54      -0.59481925       2.94341183      -0.61354613
N        4.94450054       3.41286137       0.63505482       55       0.63401163      -8.03266811       0.69313800
N        1.86723802      -0.56671067      10.51599320       56       0.28228009      -3.29301810      -0.22401899
N        4.89846192       4.49741770       0.55554129       57      -0.36247736       8.10006428      -0.19616030
N        1.90525217      -0.92311034       4.19087282       58      -0.84976977       0.82227772      -0.87010175
N        4.88598918       4.84814691       6.90470059       59      -0.10788530       1.46942031       0.30635673
N        0.23075434       1.57949972       1.25694887       60      -0.18607464       0.13487339      -0.39855331
N        6.53718050       2.34436800       9.82981083       61      -0.93596143       5.19436693       1.95690989
N       -0.06095888       2.78343144       1.45743022       62       0.41404998      -0.90486038       0.26628065
N        6.79845187       1.21874355       9.64727798       63       1.85363793      -7.53604412      -1.18002832
N       -0.37004244       3.88533038       1.47319477       64      -0.25262010       0.59655356       0.33867073
N        7.11605748       0.08401846       9.58583059       65      -0.51847565       1.95387399      -0.09062572
66
Lattice="8.2206581 0.0 0.0 -1.2579284729291065 8.097900258051103 0.0 -0.20168743301275707 -4.129020366585195 11.102834865495304" Properties=species:S:1:pos:R:3:spacegroup_kinds:I:1:forces:R:3 spacegroup="P 1" unit_cell=conventional occupancy="_JSON {\"0\": {\"Zn\": 1}, \"1\": {\"Zn\": 1}, \"2\": {\"H\": 1}, \"3\": {\"H\": 1}, \"4\": {\"H\": 1}, \"5\": {\"H\": 1}, \"6\": {\"H\": 1}, \"7\": {\"H\": 1}, \"8\": {\"H\": 1}, \"9\": {\"H\": 1}, \"10\": {\"H\": 1}, \"11\": {\"H\": 1}, \"12\": {\"H\": 1}, \"13\": {\"H\": 1}, \"14\": {\"H\": 1}, \"15\": {\"H\": 1}, \"16\": {\"H\": 1}, \"17\": {\"H\": 1}, \"18\": {\"C\": 1}, \"19\": {\"C\": 1}, \"20\": {\"C\": 1}, \"21\": {\"C\": 1}, \"22\": {\"C\": 1}, \"23\": {\"C\": 1}, \"24\": {\"C\": 1}, \"25\": {\"C\": 1}, \"26\": {\"C\": 1}, \"27\": {\"C\": 1}, \"28\": {\"C\": 1}, \"29\": {\"C\": 1}, \"30\": {\"C\": 1}, \"31\": {\"C\": 1}, \"32\": {\"C\": 1}, \"33\": {\"C\": 1}, \"34\": {\"C\": 1}, \"35\": {\"C\": 1}, \"36\": {\"C\": 1}, \"37\": {\"C\": 1}, \"38\": {\"N\": 1}, \"39\": {\"N\": 1}, \"40\": {\"N\": 1}, \"41\": {\"N\": 1}, \"42\": {\"N\": 1}, \"43\": {\"N\": 1}, \"44\": {\"N\": 1}, \"45\": {\"N\": 1}, \"46\": {\"N\": 1}, \"47\": {\"N\": 1}, \"48\": {\"N\": 1}, \"49\": {\"N\": 1}, \"50\": {\"N\": 1}, \"51\": {\"N\": 1}, \"52\": {\"N\": 1}, \"53\": {\"N\": 1}, \"54\": {\"N\": 1}, \"55\": {\"N\": 1}, \"56\": {\"N\": 1}, \"57\": {\"N\": 1}, \"58\": {\"N\": 1}, \"59\": {\"N\": 1}, \"60\": {\"N\": 1}, \"61\": {\"N\": 1}, \"62\": {\"N\": 1}, \"63\": {\"N\": 1}, \"64\": {\"N\": 1}, \"65\": {\"N\": 1}}" energy=-457.4710998535156 free_energy=-457.4710998535156 stress="-0.003733640303835273 -0.0011712245177477598 0.0009503955370746553 -0.0011712245177477598 -0.028518131002783775 -0.0050652725622057915 0.0009503955370746553 -0.0050652725622057915 -0.010240823030471802" pbc="T T T"
Zn       1.12592159       5.81944362       5.76657590        0       0.22644113      -0.29880941       0.42963499
Zn       5.67643083      -1.81873949       5.38261822        1      -0.46416509       0.26348898      -0.50405836
H        2.40152559      -2.14600871       8.86612853        2       0.39114177      -0.78634644      -0.36617887
H        4.34422337       6.11927472       2.26127764        3      -0.00240467      -0.09205684       0.37981382
H        2.67334684      -3.65003354      10.80794662        4       0.15362087      -1.15194988      -1.87910128
H        4.05358249       7.72372542       0.30362521        5       0.05218020      -0.34485108       0.14831981
H        1.65684839       1.08088261       7.94591675        6      -0.16286674       2.17288494       0.10006824
H        5.10418923       2.80966909       3.18001275        7       0.13054793       0.47059253       0.18073890
H        1.38298643       2.87157470       6.10054256        8       0.12395239      -0.28367347       0.26640022
H        5.36968447       1.16368010       4.98837400        9      -0.27057686      -0.20938763      -0.11875785
H        1.78044117       0.63777308       5.51445131       10       0.10675433       0.50434697       0.98623997
H        4.98662553       3.32846039       5.63622085       11      -0.29769960      -0.85948551      -2.38127255
H        0.74703313       2.30725482       3.90015143       12       0.35784230      -1.47209859      -0.59035695
H        6.03092334       1.67847527       7.22148493       13      -0.53636575       1.11006641       0.35375297
H       -0.39009122       7.19446314       0.95684634       14       0.09463242       0.23356119      -0.18990803
H        7.08142531      -3.19725064      10.11731873       15       0.19353783       0.32302728       0.86339170
H        0.65218187       5.75038402       2.73908641       16      -0.00819226      -0.81928337      -0.27997983
H        6.12241882      -1.76704435       8.34097778       17       0.14475821      -0.41195714       0.02762884
C        2.61049500      -3.21487621       8.63997363       18      -0.37094253      -0.80731332       2.68642426
C        4.20619737       7.17145196       2.48282422       19      -0.08417257       1.10615921      -3.40321541
C        1.46757508       3.95996167       9.74631392       20      -0.36715230       3.91465569       1.17676640
C        5.33217433      -0.04576937       1.33878117       21      -0.07828020       0.08240473       2.01954222
C        1.59561819       2.61976295       9.52763687       22       0.22133544      -1.27055776      -0.70516729
C        5.18094066       1.34476536       1.59802584       23       0.13988759      -0.60173607      -0.41086313
C        1.59201608       2.23651313       8.12537592       24       0.49914038      -6.00369453       3.76559782
C        5.22799372       1.76053137       2.97634813       25      -0.81658840       1.65750647      -3.06825733
C        1.43434784       3.09577845       7.16961799       26      -0.18279909       2.59867048      -3.11942792
C        5.29436814       0.85654014       3.94143025       27       0.82075119      -1.31060052       2.04769135
C        1.57178262       0.39709335       4.50715120       28       0.67521888      -1.82593441      -1.03371823
C        5.19852100       3.60793977       6.60000015       29       0.02473679      -0.43591994       2.22583699
C        1.01875202       1.23802463       3.57579230       30      -0.12828821       3.23580980       2.91211653
C        5.71580347       2.71989935       7.54317973       31       0.74265981      -1.66128349      -1.19100189
C        0.81586671       0.83234937       2.30868818       32      -1.33378303      -0.32691550      -3.54863000
C        5.98889627       3.11733662       8.85597126       33      -0.55421853       2.11626959      -0.49077809
C        1.11872657      -0.47995675       1.92812510       34       0.35844815      -1.70661438       1.71563673
C        5.66290281       4.49111634       9.14863743       35      -0.13562123      -1.00298178      -1.38474703
C        0.35971797       6.75397447       2.94256862       36       0.35215899       1.88998985      -0.59661114
C        6.38460860      -2.81721030       8.13581395       37      -0.35894725       0.79589838       0.95892698
N        3.94844780      -1.01598191       6.45257449       38       0.35976902       0.72810942       0.47126350
N        2.75481980       4.94847500       4.65393538       39       0.26345381       1.72142482       3.40353203
N        4.06244266      -0.36508318       7.46605104       40       0.22763765       0.25926802       1.98850083
N        2.66347914       4.35748686       3.67067263       41      -0.40518278      -3.52474785      -7.47117376
N        4.17242995       0.19586542       8.52523586       42      -0.36093611      -0.48137897      -2.45323730
N        2.61572167       3.79224875       2.55783659       43       0.16368660       1.28086913       4.11043882
N        0.95335156      -1.16976955       7.05360252       44       1.18385816      -0.15388702       0.61698240
N        5.81934912       5.14427833       4.04232925       45       1.44981372      -0.77633429       0.45706949
N       -0.10186080      -0.83170480       6.68398458       46      -2.67281294       0.84830141      -1.61333466
N        6.89944115       4.76341207       4.43559404       47      -1.90523934       0.74600339      -0.20410374
N        7.04750507      -0.44155160       6.24454881       48       1.49591589      -0.38803327       0.96546358
N       -0.28921596       4.35522592       4.85210949       49       0.44604811      -0.13640422      -0.16065349
N        1.33108215       4.42657127       7.42012237       50      -0.30773097       0.96933031      -1.75918126
N        5.45743732      -0.47067485       3.70573857       51      -0.13076566      -0.24851511       1.57620168
N        1.67019794       1.80662149      10.66883753       52       0.29123688      -0.92394590      -0.06990670
N        5.02733793       2.14107395       0.43057031       53       0.01114988       0.11097878       1.03082800
N        1.80400930       0.52940422      10.50884567       54      -0.79254085       7.50973129      -0.49204874
N        4.93804701       3.40546303       0.65385405       55       0.60208869      -9.36731625       0.28479430
N        1.85322749      -0.56887625      10.51066643       56       0.39707768      -6.28920698      -0.23193941
N        4.89846079       4.48441483       0.58384738       57      -0.35850012       9.08266640      -0.15931484
N        1.90521852      -0.91333539       4.19267744       58      -0.98456043       1.16039824      -0.24903493
N        4.86741721       4.87444985       6.88077915       59       0.57299852      -0.16914591       0.54873896
N        0.20872640       1.58940374       1.25975433       60       0.44829410      -1.04046774      -0.16877258
N        6.53590816       2.33351601       9.82142156       61      -0.36922929       3.56493831       1.81926584
N       -0.07683341       2.77955175       1.43355518       62       0.72966707      -2.01799607       0.49250275
N        6.82437893       1.19539107       9.63834296       63       0.95361269      -5.65242004      -0.81745863
N       -0.38999142       3.86149101       1.46162033       64      -0.83784032       2.79615068       0.37609273
N        7.09533826       0.05565243       9.61357067       65      -0.12765312       1.59974837      -0.27401030
66
Lattice="8.2206581 0.0 0.0 -1.2579284729291065 8.097900258051103 0.0 -0.20168743301275707 -4.129020366585195 11.102834865495304" Properties=species:S:1:pos:R:3:spacegroup_kinds:I:1:forces:R:3 spacegroup="P 1" unit_cell=conventional occupancy="_JSON {\"0\": {\"Zn\": 1}, \"1\": {\"Zn\": 1}, \"2\": {\"H\": 1}, \"3\": {\"H\": 1}, \"4\": {\"H\": 1}, \"5\": {\"H\": 1}, \"6\": {\"H\": 1}, \"7\": {\"H\": 1}, \"8\": {\"H\": 1}, \"9\": {\"H\": 1}, \"10\": {\"H\": 1}, \"11\": {\"H\": 1}, \"12\": {\"H\": 1}, \"13\": {\"H\": 1}, \"14\": {\"H\": 1}, \"15\": {\"H\": 1}, \"16\": {\"H\": 1}, \"17\": {\"H\": 1}, \"18\": {\"C\": 1}, \"19\": {\"C\": 1}, \"20\": {\"C\": 1}, \"21\": {\"C\": 1}, \"22\": {\"C\": 1}, \"23\": {\"C\": 1}, \"24\": {\"C\": 1}, \"25\": {\"C\": 1}, \"26\": {\"C\": 1}, \"27\": {\"C\": 1}, \"28\": {\"C\": 1}, \"29\": {\"C\": 1}, \"30\": {\"C\": 1}, \"31\": {\"C\": 1}, \"32\": {\"C\": 1}, \"33\": {\"C\": 1}, \"34\": {\"C\": 1}, \"35\": {\"C\": 1}, \"36\": {\"C\": 1}, \"37\": {\"C\": 1}, \"38\": {\"N\": 1}, \"39\": {\"N\": 1}, \"40\": {\"N\": 1}, \"41\": {\"N\": 1}, \"42\": {\"N\": 1}, \"43\": {\"N\": 1}, \"44\": {\"N\": 1}, \"45\": {\"N\": 1}, \"46\": {\"N\": 1}, \"47\": {\"N\": 1}, \"48\": {\"N\": 1}, \"49\": {\"N\": 1}, \"50\": {\"N\": 1}, \"51\": {\"N\": 1}, \"52\": {\"N\": 1}, \"53\": {\"N\": 1}, \"54\": {\"N\": 1}, \"55\": {\"N\": 1}, \"56\": {\"N\": 1}, \"57\": {\"N\": 1}, \"58\": {\"N\": 1}, \"59\": {\"N\": 1}, \"60\": {\"N\": 1}, \"61\": {\"N\": 1}, \"62\": {\"N\": 1}, \"63\": {\"N\": 1}, \"64\": {\"N\": 1}, \"65\": {\"N\": 1}}" energy=-456.67181396484375 free_energy=-456.67181396484375 stress="-0.009644310921430588 0.0014241974567994475 -0.0007183838752098382 0.0014241974567994475 -0.038105133920907974 -0.012457254342734814 -0.0007183838752098382 -0.012457254342734814 -0.011277389712631702" pbc="T T T"
Zn       1.11825366       5.83847324       5.74001001        0       0.18356438      -0.46123701       0.80845577
Zn       5.66106146      -1.84589427       5.38113772        1      -0.39015213       0.20896372      -0.50033349
H        2.41282008      -2.12517473       8.89192836        2       0.31428349      -0.92317182      -0.59436554
H        4.33100943       6.09268769       2.28959606        3      -0.22914045       1.07402122       0.14829873
H        2.66265755      -3.66552996      10.83288428        4       0.12746190      -1.13041425      -1.96781683
H        4.07834459       7.71581849       0.28347741        5       0.04603335      -0.11731426       0.25649595
H        1.68182017       1.09866649       7.92021800        6      -0.13026178       1.92661989       0.16365680
H        5.09856385       2.78575419       3.18717261        7       0.02744744       1.01966000       0.23329012
H        1.36483859       2.87244361       6.12766040        8       0.09259491      -0.35387599      -0.02296701
H        5.35943464       1.13688997       5.00788356        9      -0.33329979      -0.31755909      -1.23276544
H        1.77764484       0.61076647       5.53155410       10      -0.06286390       0.30053633      -0.29214969
H        4.96400522       3.30630576       5.63703877       11      -0.12577686      -0.51977926      -1.37060618
H        0.72550003       2.27985212       3.90726303       12       0.25057375      -0.73109257      -0.50465649
H        6.01800273       1.67463885       7.20144323       13      -0.31075025       0.46884954       0.12578197
H       -0.38843469       7.16941298       0.97588461       14      -0.03739132       0.36797830      -0.40931374
H        7.08689296      -3.17521160      10.13871565       15       0.09187418      -0.29548264      -0.40429637
H        0.65132638       5.77211144       2.73588551       16       0.51918077      -2.62735224      -0.72416222
H        6.12435254      -1.76466189       8.34651811       17       0.17142156      -0.13857521      -0.10962813
C        2.59137959      -3.19861362       8.64374364       18      -0.11266811      -1.79001260       2.78590584
C        4.18322290       7.18894693       2.46808759       19       0.31057724      -0.49638355      -3.50134516
C        1.45567367       3.95584964       9.76255752       20      -0.50178361       4.17163658       0.63664442
C        5.34638472      -0.01772731       1.31071584       21      -0.02410240      -1.05249691       2.76114559
C        1.57601154       2.60680386       9.53579508       22       0.45441094      -0.70891118      -0.99651003
C        5.20200145       1.36253956       1.59343708       23      -0.10466227      -1.43377113      -0.82251823
C        1.61056302       2.23829046       8.12586158       24       0.30998611      -5.91287422       4.00869894
C        5.20970847       1.75865322       2.94738952       25      -0.30521917       0.49104616      -1.22536790
C        1.41195842       3.10957214       7.18731777       26       0.02967728       1.10792315      -3.30779982
C        5.29492819       0.83112057       3.92067532       27       0.54858339      -0.03232807       2.81489897
C        1.59413102       0.38164422       4.47964457       28       0.26307270      -0.75495172       0.15433952
C        5.19560859       3.59203116       6.62109686       29      -0.32235259      -1.11156821       0.27994502
C        1.00898485       1.25574934       3.55623637       30       0.75390381       1.39586115       4.24270248
C        5.72362729       2.69461947       7.51482761       31       0.91896784      -0.88642681       1.05238032
C        0.79424836       0.81261827       2.31771515       32      -1.71821332       1.14561975      -4.28780603
C        5.99546445       3.09650244       8.87303036       33      -0.58653790       1.96985185      -1.78107929
C        1.09584323      -0.45958409       1.92707642       34       1.36652470      -3.96052647       2.40168858
C        5.68275080       4.47999133       9.13644794       35      -0.11393361       0.04743920      -0.32183802
C        0.38460649       6.73339280       2.95297175       36      -0.92800319       4.41206360      -1.26425171
C        6.41319472      -2.79238257       8.10957680       37      -0.18328001      -0.69590867       2.07712507
N        3.92810037      -1.02494195       6.47694801       38       0.23836331      -0.63419306      -1.81733620
N        2.72780957       4.95242945       4.63217424       39       0.42283142       3.83748436       6.72173977
N        4.03419733      -0.36297472       7.44501006       40       0.51170415       1.32751811       4.16528416
N        2.68122048       4.35455108       3.69058539       41      -0.54911029      -5.69539642     -10.75831795
N        4.14951342       0.18227885       8.51428741       42      -0.32683480      -0.22774735      -2.35064864
N        2.64526425       3.77106183       2.57835698       43       0.16224825       1.28315830       4.10326672
N        0.93619591      -1.16045406       7.07047963       44       0.84417713      -0.13251552       0.17747712
N        5.81579881       5.14431011       4.04649674       45       2.51168299      -1.21682310       0.77631330
N       -0.12292278      -0.83898009       6.66012701       46       1.35155296      -0.34983498       0.34740132
N        6.91898154       4.74535412       4.44101845       47      -5.65225410       2.22647500      -1.51103604
N        7.06838141      -0.44809279       6.27108432       48      -2.17309523       0.69086349      -0.69683361
N       -0.30402550       4.35885843       4.86144697       49       3.02388000      -1.18057847       0.78377253
N        1.30714460       4.39968521       7.42272455       50      -0.55078274       3.42038012      -0.87319613
N        5.43047659      -0.49559769       3.71127017       51      -0.05828975       0.25162423       0.84506357
N        1.64375578       1.81291746      10.66916316       52       0.51754344      -1.50646818      -0.12483356
N        5.03290014       2.11778795       0.44458777       53       0.04841796       0.92431664       0.39820591
N        1.82662893       0.52592335      10.47927211       54      -1.06526649       7.61568546      -0.33244923
N        4.96119364       3.38294927       0.67558566       55       0.37061211      -7.52472210       0.10276556
N        1.85497617      -0.57127649      10.52494450       56       0.45508069      -6.18847656      -0.04152381
N        4.91804414       4.46851438       0.57809078       57      -0.29496536       7.58991337      -0.25573528
N        1.92035184      -0.94135259       4.19399552       58      -1.00033295       1.76713157      -0.47215509
N        4.85875086       4.84556243       6.89571327       59       0.35967013       0.97975338       0.10835990
N        0.22398256       1.60357767       1.24440767       60       0.28780639      -1.20618546      -0.16310628
N        6.56007230       2.30996746       9.82565833       61      -0.65657204       3.98033285       1.60308814
N       -0.09340275       2.78210944       1.42213748       62       1.14280081      -2.82860804       0.54937935
N        6.82073072       1.16987781       9.61720451       63       0.95099819      -5.23005009      -0.50990534
N       -0.39977827       3.86056105       1.45340082       64      -1.08609760       3.51898313       0.41917861
N        7.09928223       0.04032967       9.64182279       65      -0.04551602       0.85192311      -0.50409645
66
Lattice="8.2206581 0.0 0.0 -1.2579284729291065 8.097900258051103 0.0 -0.20168743301275707 -4.129020366585195 11.102834865495304" Properties=species:S:1:pos:R:3:spacegroup_kinds:I:1:forces:R:3 spacegroup="P 1" unit_cell=conventional occupancy="_JSON {\"0\": {\"Zn\": 1}, \"1\": {\"Zn\": 1}, \"2\": {\"H\": 1}, \"3\": {\"H\": 1}, \"4\": {\"H\": 1}, \"5\": {\"H\": 1}, \"6\": {\"H\": 1}, \"7\": {\"H\": 1}, \"8\": {\"H\": 1}, \"9\": {\"H\": 1}, \"10\": {\"H\": 1}, \"11\": {\"H\": 1}, \"12\": {\"H\": 1}, \"13\": {\"H\": 1}, \"14\": {\"H\": 1}, \"15\": {\"H\": 1}, \"16\": {\"H\": 1}, \"17\": {\"H\": 1}, \"18\": {\"C\": 1}, \"19\": {\"C\": 1}, \"20\": {\"C\": 1}, \"21\": {\"C\": 1}, \"22\": {\"C\": 1}, \"23\": {\"C\": 1}, \"24\": {\"C\": 1}, \"25\": {\"C\": 1}, \"26\": {\"C\": 1}, \"27\": {\"C\": 1}, \"28\": {\"C\": 1}, \"29\": {\"C\": 1}, \"30\": {\"C\": 1}, \"31\": {\"C\": 1}, \"32\": {\"C\": 1}, \"33\": {\"C\": 1}, \"34\": {\"C\": 1}, \"35\": {\"C\": 1}, \"36\": {\"C\": 1}, \"37\": {\"C\": 1}, \"38\": {\"N\": 1}, \"39\": {\"N\": 1}, \"40\": {\"N\": 1}, \"41\": {\"N\": 1}, \"42\": {\"N\": 1}, \"43\": {\"N\": 1}, \"44\": {\"N\": 1}, \"45\": {\"N\": 1}, \"46\": {\"N\": 1}, \"47\": {\"N\": 1}, \"48\": {\"N\": 1}, \"49\": {\"N\": 1}, \"50\": {\"N\": 1}, \"51\": {\"N\": 1}, \"52\": {\"N\": 1}, \"53\": {\"N\": 1}, \"54\": {\"N\": 1}, \"55\": {\"N\": 1}, \"56\": {\"N\": 1}, \"57\": {\"N\": 1}, \"58\": {\"N\": 1}, \"59\": {\"N\": 1}, \"60\": {\"N\": 1}, \"61\": {\"N\": 1}, \"62\": {\"N\": 1}, \"63\": {\"N\": 1}, \"64\": {\"N\": 1}, \"65\": {\"N\": 1}}" energy=-455.592041015625 free_energy=-455.592041015625 stress="-0.005450576078146696 -0.0014404928078874946 -0.0019464715151116252 -0.0014404928078874946 -0.02503030188381672 -0.011781600303947926 -0.0019464715151116252 -0.011781600303947926 -0.019914697855710983" pbc="T T T"