83
Lattice="7.52912245 0.0 0.0 3.094525608311675 8.281299681763555 0.0 2.0780404020842447 -0.9124127021254336 14.990996070117104" Properties=species:S:1:pos:R:3:spacegroup_kinds:I:1:forces:R:3 spacegroup="P 1" unit_cell=conventional occupancy="_JSON {\"0\": {\"Cd\": 1}, \"1\": {\"H\": 1}, \"2\": {\"H\": 1}, \"3\": {\"H\": 1}, \"4\": {\"H\": 1}, \"5\": {\"H\": 1}, \"6\": {\"H\": 1}, \"7\": {\"H\": 1}, \"8\": {\"H\": 1}, \"9\": {\"H\": 1}, \"10\": {\"H\": 1}, \"11\": {\"H\": 1}, \"12\": {\"H\": 1}, \"13\": {\"H\": 1}, \"14\": {\"H\": 1}, \"15\": {\"H\": 1}, \"16\": {\"H\": 1}, \"17\": {\"H\": 1}, \"18\": {\"H\": 1}, \"19\": {\"H\": 1}, \"20\": {\"H\": 1}, \"21\": {\"H\": 1}, \"22\": {\"H\": 1}, \"23\": {\"H\": 1}, \"24\": {\"H\": 1}, \"25\": {\"H\": 1}, \"26\": {\"H\": 1}, \"27\": {\"H\": 1}, \"28\": {\"H\": 1}, \"29\": {\"H\": 1}, \"30\": {\"H\": 1}, \"31\": {\"H\": 1}, \"32\": {\"H\": 1}, \"33\": {\"C\": 1}, \"34\": {\"C\": 1}, \"35\": {\"C\": 1}, \"36\": {\"C\": 1}, \"37\": {\"C\": 1}, \"38\": {\"C\": 1}, \"39\": {\"C\": 1}, \"40\": {\"C\": 1}, \"41\": {\"C\": 1}, \"42\": {\"C\": 1}, \"43\": {\"C\": 1}, \"44\": {\"C\": 1}, \"45\": {\"C\": 1}, \"46\": {\"C\": 1}, \"47\": {\"C\": 1}, \"48\": {\"C\": 1}, \"49\": {\"C\": 1}, \"50\": {\"C\": 1}, \"51\": {\"C\": 1}, \"52\": {\"C\": 1}, \"53\": {\"C\": 1}, \"54\": {\"C\": 1}, \"55\": {\"C\": 1}, \"56\": {\"C\": 1}, \"57\": {\"C\": 1}, \"58\": {\"C\": 1}, \"59\": {\"C\": 1}, \"60\": {\"C\": 1}, \"61\": {\"C\": 1}, \"62\": {\"C\": 1}, \"63\": {\"C\": 1}, \"64\": {\"C\": 1}, \"65\": {\"C\": 1}, \"66\": {\"C\": 1}, \"67\": {\"C\": 1}, \"68\": {\"C\": 1}, \"69\": {\"I\": 1}, \"70\": {\"I\": 1}, \"71\": {\"N\": 1}, \"72\": {\"N\": 1}, \"73\": {\"N\": 1}, \"74\": {\"N\": 1}, \"75\": {\"N\": 1}, \"76\": {\"N\": 1}, \"77\": {\"N\": 1}, \"78\": {\"N\": 1}, \"79\": {\"N\": 1}, \"80\": {\"N\": 1}, \"81\": {\"N\": 1}, \"82\": {\"N\": 1}}" energy=-548.78662109375 free_energy=-548.78662109375 stress="-0.009162826463580132 -0.0011350988643243909 -0.0022033636923879385 -0.0011350988643243909 -0.0076756770722568035 0.0032318951562047005 -0.0022033636923879385 0.0032318951562047005 -0.0025221810210496187" pbc="T T T"
Cd       4.13367243       7.82514432       7.49554565        0       0.05077670       0.01609733       0.11575644
H        1.64432697       1.12123855       4.34427044        1       0.66541231      -0.97383249       0.02963348
H       11.01190842       6.27808714      10.64976842        2       0.91123748      -1.51518047      -0.00610641
H        6.37052697       5.74889467       5.70689053        3       0.17319596      -0.94112378       0.82621920
H        6.33472106       1.64150144       9.29739089        4       0.01760893       0.08570564      -0.05907446
H        6.64792734       5.24102442       2.45046284        5       0.47591656       0.61771637       0.34307975
H        6.04887091       2.09102057      12.49304730        6       0.63316703       0.45758754       0.47519028
H        7.84460197       5.23315296       3.75684750        7       0.34196466      -0.32556990       0.26121396
H        4.86546974       2.10407490      11.19770939        8      -0.22280768       0.45774215      -0.44064835
H        7.10031131       6.35411501       0.40232268        9      -0.22893065       0.07158472      -0.21167320
H        5.60372861       0.96833793      14.60122645       10       0.37317517       0.20599356       0.04102875
H       10.68254683       6.62578999      13.89674115       11       0.12106162       0.19836655      -0.30315095
H        2.00432328       0.73242675       1.06004877       12       0.28592023      -0.06124092       0.94173032
H        0.69875298      -0.14279349       2.21143434       13       0.86598897       0.23690525       0.49647316
H       12.01177676       7.49063879      12.73561263       14      -0.90974599      -0.27077669      -0.36679062
H        9.75234991       7.00056029       3.75512655       15      -0.23597503       0.05800120      -1.29953051
H        2.94526248       0.34463380      11.25431917       16       0.35577738      -0.17772263       0.99707627
H        8.65195311       3.03449216       6.69423302       17      -0.80904722      -0.05165199      -0.23336291
H        4.08807735       4.31391983       8.33056088       18      -0.30454502       0.04225090      -0.13307224
H        5.40977562       0.47451474       6.04334932       19      -0.35146043      -0.51231641      -0.03306351
H        7.30700526       6.92792428       8.96314308       20      -0.50798815      -0.60528773       0.00377187
H        4.06418851       3.81400948       5.41071835       21       0.19188488      -0.46976367      -0.21248893
H        8.66264882       3.57156283       9.54760692       22      -0.24538764       0.32909408       0.40488487
H        3.78502378       2.13391131       4.98838645       23      -0.68645453      -0.71836811      -0.07033296
H        8.90576929       5.26144895       9.95982123       24       0.64302188       0.70642084       0.13948229
H        3.28907255       4.84112865       3.41983695       25       0.33637354      -0.16324794      -0.52629203
H        9.44180021       2.53605164      11.55653816       26      -0.57981580       0.48940122       0.54564863
H        3.61237647       5.40607863       1.03892089       27      -0.59192568       0.69502711      -0.34125465
H        9.08701576       1.95582580      13.90253542       28       0.06422244      -0.13723655       0.29627824
H        6.64237947       2.35814258       0.79237967       29       0.04120970      -0.08578177       0.10409129
H        6.05029282       5.03141720      14.20488174       30       0.46449575      -0.41933537      -0.29142118
H        6.26885109       1.77298251       3.07622463       31      -0.07469524      -0.16696247       0.21231097
H        6.45884122       5.64435590      11.91555886       32       0.11967292      -0.03699502      -0.07027918
C        2.24304162       0.16714450       4.38217695       33      -1.30510390       0.91303694       0.92523706
C       10.48611910       7.17306294      10.59330859       34      -1.43223405       1.96835434       1.40577364
C        6.11081108       6.60429567       5.14784152       35       0.20712090       0.20238855      -0.89938104
C        6.58594676       0.76918757       9.88903458       36       1.17460155      -0.82119620      -1.82054269
C        7.35390314       5.89150838       3.04762477       37      -0.84911001      -0.47946438       0.07327420
C        5.38096264       1.48820133      11.91801189       38      -0.45581380      -1.26990604      -0.63337898
C        8.30944310       6.60346012       2.16493371       39      -0.08765018       0.28496462      -0.97445047
C        4.41105338       0.78527366      12.80567717       40      -0.32988188      -0.52973866       0.69540709
C        8.00818772       6.79396483       0.79715952       41       0.89292347       0.01809582       0.24295782
C        4.68183461       0.61174854      14.16589441       42      -0.41114822      -0.30770481       0.61337358
C       10.99337426       6.53631366      14.92859079       43      -0.25086328      -0.22125740       1.12447989
C        1.71183057       0.87292907       0.04881013       44      -0.75924581      -0.01641240      -1.68749332
C       10.13304445       7.96937270       0.45129266       45      -0.50290298      -0.47425294       0.14121968
C        2.54706695      -0.55110388      14.56434457       46       0.58970940       0.28852686      -0.84155035
C       10.40367699       7.76020697       1.84285014       47       0.00514792       0.74148905      -2.17294073
C        2.28277045      -0.40429883      13.14767418       48       1.05123973      -0.06317290       2.25166297
C        9.52503462       7.11572414       2.64193872       49      -0.76379669      -0.66087729       2.52758479
C        3.20352521       0.21668789      12.35005215       50       0.13788316       0.81362927      -2.24236631
C        7.64554536       2.68173879       6.38285565       51       0.70963979      -0.76605463       0.40811992
C        5.03706127       4.72021081       8.63811173       52      -0.97662795       0.49088353      -0.92361248
C        6.04748632       1.33337673       6.06618436       53      -1.16221118      -1.91005516       0.20822027
C        6.63993841       6.03907028       8.94474679       54       2.74598551       2.58696413       0.05376930
C        4.49482591       2.92523928       4.87133454       55       0.05260679       1.30131674       0.91953051
C        8.22469427       4.44801744      10.09288484       56      -1.24692678      -1.15666890       0.11042777
C        4.72311556       3.29552282       3.45567627       57       1.44997954      -1.33448815      -1.17891192
C        7.93312642       4.11092461      11.57450211       58       2.11111927      -0.49560744      -2.41508245
C        4.03546591       4.29607807       2.79588864       59      -1.60770249       0.96457797       1.17297673
C        8.69087402       3.10315409      12.16466176       60       0.21634340      -0.77752584       0.67495644
C        4.19095138       4.62884300       1.46582381       61       1.97914732      -1.48479438      -0.60878199
C        8.46868800       2.76175011      13.52983834       62       1.89655316      -0.88550198      -2.51463294
C        5.20212247       3.93809057       0.68438720       63      -1.54434609       0.82621914       1.18235576
C        7.53336035       3.39220893      14.27945303       64      -1.54484618       1.30442786       0.63379163
C        5.88756135       2.90947707       1.35179611       65       0.37611765       0.01049277      -1.09579647
C        6.80789739       4.44306020      13.64638586       66      -0.33641341       0.65672737       0.36413747
C        5.65959555       2.56839595       2.66108747       67      -0.36512637       0.37832692       0.89901114
C        7.05015817       4.82114279      12.31986532       68      -1.61393762       0.52495575       1.66501868
I        9.66415758       5.88116369       6.46019789       69      -0.05725975      -0.15155251       0.06433789
I        3.08784969       1.50474810       8.52393472       70      -0.05084905       0.08622748      -0.10497978
N        7.25032257       1.33951527       6.59486714       71       1.50745320       1.76314771       0.04730779
N        5.45129194       6.01443493       8.43131280       72      -2.59521103       0.23179778      -0.74861765
N        5.34588467       7.62767071       5.49350778       73      -0.47243401       0.64075899       0.43417343
N        7.36221396      -0.28685779       9.53257344       74       0.42003420       0.23998362      -1.39819849
N        6.54088919       6.78143834       3.87405895       75      -0.33291140       0.27570543      -0.32648396
N        6.20027713       0.52979836      11.10852296       76      -1.74060273       1.86172450       3.06969404
N        6.03158121       7.97018340       3.39158181       77       0.75790703      -0.11672491      -0.95196283
N        6.66809147      -0.59972227      11.65251464       78       0.87262946      -1.35674071      -1.32386220
N        5.69662750       2.50727756       5.58262161       79      -0.36181623       1.55124569      -0.67021585
N        6.98523984       4.84291397       9.39206120       80       1.26081014      -1.04028916       0.77471578
N        6.72025965       3.40243158       5.75100875       81       0.86406213       0.01465106       0.41279942
N        5.94605236       3.99097344       9.20731377       82       0.49465150      -1.65613353       0.80160171
83
Lattice="7.52912245 0.0 0.0 3.094525608311675 8.281299681763555 0.0 2.0780404020842447 -0.9124127021254336 14.990996070117104" Properties=species:S:1:pos:R:3:spacegroup_kinds:I:1:forces:R:3 spacegroup="P 1" unit_cell=conventional occupancy="_JSON {\"0\": {\"Cd\": 1}, \"1\": {\"H\": 1}, \"2\": {\"H\": 1}, \"3\": {\"H\": 1}, \"4\": {\"H\": 1}, \"5\": {\"H\": 1}, \"6\": {\"H\": 1}, \"7\": {\"H\": 1}, \"8\": {\"H\": 1}, \"9\": {\"H\": 1}, \"10\": {\"H\": 1}, \"11\": {\"H\": 1}, \"12\": {\"H\": 1}, \"13\": {\"H\": 1}, \"14\": {\"H\": 1}, \"15\": {\"H\": 1}, \"16\": {\"H\": 1}, \"17\": {\"H\": 1}, \"18\": {\"H\": 1}, \"19\": {\"H\": 1}, \"20\": {\"H\": 1}, \"21\": {\"H\": 1}, \"22\": {\"H\": 1}, \"23\": {\"H\": 1}, \"24\": {\"H\": 1}, \"25\": {\"H\": 1}, \"26\": {\"H\": 1}, \"27\": {\"H\": 1}, \"28\": {\"H\": 1}, \"29\": {\"H\": 1}, \"30\": {\"H\": 1}, \"31\": {\"H\": 1}, \"32\": {\"H\": 1}, \"33\": {\"C\": 1}, \"34\": {\"C\": 1}, \"35\": {\"C\": 1}, \"36\": {\"C\": 1}, \"37\": {\"C\": 1}, \"38\": {\"C\": 1}, \"39\": {\"C\": 1}, \"40\": {\"C\": 1}, \"41\": {\"C\": 1}, \"42\": {\"C\": 1}, \"43\": {\"C\": 1}, \"44\": {\"C\": 1}, \"45\": {\"C\": 1}, \"46\": {\"C\": 1}, \"47\": {\"C\": 1}, \"48\": {\"C\": 1}, \"49\": {\"C\": 1}, \"50\": {\"C\": 1}, \"51\": {\"C\": 1}, \"52\": {\"C\": 1}, \"53\": {\"C\": 1}, \"54\": {\"C\": 1}, \"55\": {\"C\": 1}, \"56\": {\"C\": 1}, \"57\": {\"C\": 1}, \"58\": {\"C\": 1}, \"59\": {\"C\": 1}, \"60\": {\"C\": 1}, \"61\": {\"C\": 1}, \"62\": {\"C\": 1}, \"63\": {\"C\": 1}, \"64\": {\"C\": 1}, \"65\": {\"C\": 1}, \"66\": {\"C\": 1}, \"67\": {\"C\": 1}, \"68\": {\"C\": 1}, \"69\": {\"I\": 1}, \"70\": {\"I\": 1}, \"71\": {\"N\": 1}, \"72\": {\"N\": 1}, \"73\": {\"N\": 1}, \"74\": {\"N\": 1}, \"75\": {\"N\": 1}, \"76\": {\"N\": 1}, \"77\": {\"N\": 1}, \"78\": {\"N\": 1}, \"79\": {\"N\": 1}, \"80\": {\"N\": 1}, \"81\": {\"N\": 1}, \"82\": {\"N\": 1}}" energy=-547.1700439453125 free_energy=-547.1700439453125 stress="-0.015485452488064766 -0.002957877703011036 -4.5847059482184704e-06 -0.002957877703011036 -0.006728244014084339 0.0011032117763534188 -4.5847059482184704e-06 0.0011032117763534188 -0.005781024694442749" pbc="T T T"
Cd       4.10777681       7.79938151       7.52063958        0       0.28193152       0.16804421      -0.21465170
H        1.61774397       1.12361288       4.33818158        1       0.74905503      -0.91477048      -0.05395722
H       10.99475264       6.28645485      10.65304358        2       1.76531768      -3.10699892       0.14843367
H        6.38315217       5.72526145       5.72409480        3      -0.12821046      -0.25905848       0.49568716
H        6.32635811       1.66607198       9.29991324        4       0.49954927      -1.29544890       0.75339043
H        6.63421262       5.21634796       2.43735417        5       1.12717652       1.15815568       0.71535897
H        6.06426201       2.07141743      12.49503855        6       1.08491313       0.90265852       0.96029532
H        7.85959230       5.26155348       3.77819500        7       0.21879920       0.01151592      -0.50681323
H        4.85220471       2.12407592      11.21027493        8       0.30801451      -0.05312868       0.20290649
H        7.11848876       6.38228128       0.42313777        9      -1.77781630      -0.62391990      -1.00011909
H        5.58875256       0.97971762      14.57890657       10       0.29169813       0.07745240       0.26695022
H       10.67448225       6.61390155      13.87356436       11       0.49099290       0.17364395       0.26312348
H        1.99306893       0.71188913       1.06434049       12       0.26713032      -0.08185914       0.43744028
H        0.71564875      -0.15795971       2.24103823       13       0.88217616       0.33863842       0.36594766
H       12.03787430       7.48796824      12.75561437       14      -1.98194718      -0.67414838      -0.83873534
H        9.76468921       7.02010609       3.76819832       15      -0.41250116       0.01229860      -1.82759404
H        2.93302386       0.32538255      11.25089233       16       0.52067029      -0.01496557       1.28901649
H        8.63960278       3.03614678       6.71105407       17      -1.15593779      -0.29426506      -0.28068089
H        4.11049709       4.30230560       8.32499862       18      -1.07014918      -0.20947106      -0.40806997
H        5.39280906       0.46893431       6.06978818       19       0.30712542       0.25609186      -0.01989235
H        7.31610641       6.92282364       8.98994125       20      -0.55860418      -0.83780301      -0.07794180
H        4.05081398       3.79652251       5.40503932       21       0.07554677      -0.23849121      -0.00255231
H        8.65051591       3.58405079       9.53055600       22      -0.21135963       0.12228873       0.58323669
H        3.81442070       2.11222073       4.97471152       23      -1.01722455      -0.88693410      -0.14519435
H        8.89563976       5.23828687       9.95613302       24       0.83430225       0.93522823       0.13635714
H        3.31053044       4.85002675       3.42075390       25       0.02734341       0.06703088      -0.40008789
H        9.42160025       2.51447399      11.57895750       26      -0.04728773       0.05791648       0.05823591
H        3.63764528       5.41539053       1.04517634       27      -1.64191079       2.17272019      -1.20008111
H        9.05847108       1.95459577      13.91610458       28       0.25526947      -0.36007494       0.51029515
H        6.62781295       2.34197190       0.77869516       29      -0.57504547       0.46622914       0.58352506
H        6.05981587       5.01576571      14.20370395       30      -0.76745385       0.46950856       0.69428778
H        6.27713962       1.74374619       3.10467026       31      -0.61989731       0.62112510      -0.11549398
H        6.47981579       5.66346089      11.89107324       32      -0.28570658       0.28646365      -0.07760272
C        2.24364757       0.18495277       4.35430175       33      -1.57773578       0.63962817       2.18416023
C       10.51418942       7.16395264      10.60540610       34      -2.98664808       4.22062922       0.95145792
C        6.10412517       6.59090011       5.15056034       35       0.54435432       0.40900815      -1.25004721
C        6.60709505       0.74185604       9.91213865       36      -0.08853272       2.18219328      -4.02873278
C        7.38064517       5.92055065       3.01987122       37      -2.26240873      -2.60543752       1.45107055
C        5.39281653       1.48922686      11.94298619       38      -1.74586737      -1.07225311      -1.64897382
C        8.28882361       6.59094473       2.14037681       39       1.92736840       1.70691180      -0.73654068
C        4.38990858       0.79668096      12.82282632       40       0.31582609      -0.35272655       0.60174441
C        7.98478549       6.81026144       0.79689199       41       2.96494937       0.69005841       0.05401797
C        4.65243089       0.59737019      14.19498149       42       1.25881922       0.82626760      -0.99578476
C       11.02062553       6.51974705      14.91456900       43      -1.39697766      -0.11947933       1.26371109
C        1.73456733       0.84608618       0.02872475       44      -2.03934002      -0.61101919       0.32922888
C       10.12553717       7.98813428       0.46532153       45       0.15210539      -0.47944272      -0.76332104
C        2.54441216      -0.53710602      14.55138379       46       0.26165390      -0.11074229       0.14022455
C       10.42037745       7.77330647       1.84768246       47      -0.43106282       0.58443260      -1.96996462
C        2.25490021      -0.37458229      13.17576614       48       2.76347136       0.71161133       1.47375333
C        9.53301760       7.13009736       2.62981590       49      -1.44499397      -1.17916536       2.83738017
C        3.20528538       0.24518114      12.36055070       50      -1.12163162       0.07368289      -2.27051401
C        7.61860955       2.67396783       6.40178950       51       1.69113803       0.28240806       0.34370065
C        5.03400446       4.71334050       8.62372033       52       1.09417558       0.57145000      -0.10647304
C        6.06549212       1.34194698       6.09088926       53      -4.74579811      -3.89120579      -1.05339062
C        6.66024047       6.01633015       8.93817024       54       2.68531656       3.82865906      -0.07527303
C        4.47927106       2.92977865       4.85750807       55       0.93921036       0.98432589       0.93065518
C        8.21146487       4.43837813      10.10668036       56      -0.95481437      -0.80442375      -0.91347712
C        4.71062084       3.32306487       3.42887755       57       1.92372251      -2.31164074       0.09782956
C        7.93086537       4.13973508      11.54596091       58       2.07266140      -2.05933142       0.20718320
C        4.02913379       4.31547733       2.77734663       59      -1.70568538       1.18621528       1.00145173
C        8.69120818       3.07592405      12.16440900       60      -1.23732245       1.13629675       0.86405563
C        4.16673732       4.65040002       1.44801097       61       3.30772638      -3.27902031       0.33614028
C        8.46567184       2.77054916      13.55449295       62       2.90324354      -1.31851196      -4.53770590
C        5.18081986       3.92363042       0.69814491       63      -1.54887652       1.91663051      -0.19278754
C        7.55277089       3.40795058      14.25811585       64      -3.52819252       1.79432142       3.13971448
C        5.86536770       2.92222542       1.36358004       65       1.44274056      -1.28616714      -1.18474984
C        6.77934475       4.45372307      13.67479394       66       1.63734603      -0.17699787      -2.22354007
C        5.66141393       2.57177606       2.68321165       67      -0.15686582       0.11449207       0.45389527
C        7.02486020       4.83578138      12.31573900       68      -0.67917573      -0.36170158       1.98435247
I        9.64119629       5.88332311       6.44347658       69      -0.03465202      -0.16740525       0.08699984
I        3.11611949       1.47768735       8.52471224       70      -0.11932681       0.08055490      -0.11893080
N        7.22664454       1.33249988       6.57426737       71       4.61959362       1.64625406       1.74402308
N        5.47488555       6.01503252       8.42484626       72      -3.25766563      -0.38725650      -0.88112116
N        5.36683299       7.64841649       5.46663703       73      -0.92099869       0.11357839       1.39524364
N        7.34001622      -0.30194273       9.52551630       74       1.21875203      -0.48951909      -1.11551499
N        6.55676406       6.75690993       3.87214831       75      -1.14859331       1.69857788      -0.37179893
N        6.19440784       0.53914905      11.11279305       76      -1.36953819       1.37734938       3.26117420
N        6.02260756       7.99058608       3.39446693       77       1.93247581      -1.24308205      -2.31276417
N        6.68150591      -0.57017422      11.63115187       78       1.14313602      -2.60571241       0.10658498
N        5.71071358       2.48364001       5.58816622       79      -1.81127322       3.74570417      -1.72469044
N        6.99248453       4.84192832       9.38492239       80       1.25238752      -2.21464348       1.15821171
N        6.70390492       3.42726602       5.77586965       81       0.97388071      -1.13944006       0.62329262
N        5.96288848       3.97236367       9.20793390       82      -0.44803637      -0.70059043       0.15981854
83
Lattice="7.52912245 0.0 0.0 3.094525608311675 8.281299681763555 0.0 2.0780404020842447 -0.9124127021254336 14.990996070117104" Properties=species:S:1:pos:R:3:spacegroup_kinds:I:1:forces:R:3 spacegroup="P 1" unit_cell=conventional occupancy="_JSON {\"0\": {\"Cd\": 1}, \"1\": {\"H\": 1}, \"2\": {\"H\": 1}, \"3\": {\"H\": 1}, \"4\": {\"H\": 1}, \"5\": {\"H\": 1}, \"6\": {\"H\": 1}, \"7\": {\"H\": 1}, \"8\": {\"H\": 1}, \"9\": {\"H\": 1}, \"10\": {\"H\": 1}, \"11\": {\"H\": 1}, \"12\": {\"H\": 1}, \"13\": {\"H\": 1}, \"14\": {\"H\": 1}, \"15\": {\"H\": 1}, \"16\": {\"H\": 1}, \"17\": {\"H\": 1}, \"18\": {\"H\": 1}, \"19\": {\"H\": 1}, \"20\": {\"H\": 1}, \"21\": {\"H\": 1}, \"22\": {\"H\": 1}, \"23\": {\"H\": 1}, \"24\": {\"H\": 1}, \"25\": {\"H\": 1}, \"26\": {\"H\": 1}, \"27\": {\"H\": 1}, \"28\": {\"H\": 1}, \"29\": {\"H\": 1}, \"30\": {\"H\": 1}, \"31\": {\"H\": 1}, \"32\": {\"H\": 1}, \"33\": {\"C\": 1}, \"34\": {\"C\": 1}, \"35\": {\"C\": 1}, \"36\": {\"C\": 1}, \"37\": {\"C\": 1}, \"38\": {\"C\": 1}, \"39\": {\"C\": 1}, \"40\": {\"C\": 1}, \"41\": {\"C\": 1}, \"42\": {\"C\": 1}, \"43\": {\"C\": 1}, \"44\": {\"C\": 1}, \"45\": {\"C\": 1}, \"46\": {\"C\": 1}, \"47\": {\"C\": 1}, \"48\": {\"C\": 1}, \"49\": {\"C\": 1}, \"50\": {\"C\": 1}, \"51\": {\"C\": 1}, \"52\": {\"C\": 1}, \"53\": {\"C\": 1}, \"54\": {\"C\": 1}, \"55\": {\"C\": 1}, \"56\": {\"C\": 1}, \"57\": {\"C\": 1}, \"58\": {\"C\": 1}, \"59\": {\"C\": 1}, \"60\": {\"C\": 1}, \"61\": {\"C\": 1}, \"62\": {\"C\": 1}, \"63\": {\"C\": 1}, \"64\": {\"C\": 1}, \"65\": {\"C\": 1}, \"66\": {\"C\": 1}, \"67\": {\"C\": 1}, \"68\": {\"C\": 1}, \"69\": {\"I\": 1}, \"70\": {\"I\": 1}, \"71\": {\"N\": 1}, \"72\": {\"N\": 1}, \"73\": {\"N\": 1}, \"74\": {\"N\": 1}, \"75\": {\"N\": 1}, \"76\": {\"N\": 1}, \"77\": {\"N\": 1}, \"78\": {\"N\": 1}, \"79\": {\"N\": 1}, \"80\": {\"N\": 1}, \"81\": {\"N\": 1}, \"82\": {\"N\": 1}}" energy=-545.770751953125 free_energy=-545.770751953125 stress="-0.0181819349527359 -0.000886661815457046 -0.0024397140368819237 -0.000886661815457046 -0.01091892272233963 -0.00030656688613817096 -0.0024397140368819237 -0.00030656688613817096 -0.005245658569037914" pbc="T T T"
Cd       4.10865123       7.77829361       7.53688238        0       0.28897136       0.24446574      -0.22936887
H        1.64623024       1.10903520       4.34271130        1       0.52283806      -0.74780011      -0.07629165
H       10.98232237       6.29660778      10.65802989        2       2.88746119      -5.12442780       0.20584495
H        6.36354350       5.69984550       5.73250625        3      -0.23096013       0.25198293       0.11936744
H        6.30657149       1.65334393       9.31636351        4       0.58621264      -1.01761377       0.70266581
H        6.65727124       5.24338453       2.46374472        5       0.41042423       0.43929568       0.23999640
H        6.04885511       2.05087953      12.49820607        6       1.05897939       0.84623784       0.97764742
H        7.84990169       5.28517443       3.74910185        7       0.86112350      -1.04573357       0.74020737
H        4.85962486       2.10189051      11.19124922        8       0.33410969      -0.29734656       0.65382499
H        7.10836245       6.39566731       0.39779126        9      -1.41634750      -0.48990265      -0.64521307
H        5.57585080       0.97355226      14.55274912       10       0.51893699       0.15589169       0.44116187
H       10.66284299       6.63644547      13.87900036       11       0.35472760       0.25972050      -0.30980870
H        1.98911085       0.70766296       1.03973368       12       0.60508823      -0.24818525       2.09073329
H        0.68622065      -0.17447451       2.24082508       13       3.06462479       1.14942050       1.29601264
H       12.06378066       7.46530415      12.74147478       14      -3.00984097      -1.25361967      -1.43189108
H        9.77713699       7.00312913       3.78028503       15      -0.61416590       0.16184698      -2.13664341
H        2.92356991       0.30082340      11.27723449       16       0.71583307       0.05262602       1.11318862
H        8.65904358       3.01250455       6.72925080       17      -1.22299528      -0.24808776      -0.37872037
H        4.08656302       4.29891175       8.31274335       18       0.48463422       0.14169487       0.20830095
H        5.36665380       0.44975907       6.04170900       19       0.83835977       0.44325903       0.28312564
H        7.32443054       6.95046861       8.99983864       20      -1.04622638      -1.17374527      -0.05216339
H        4.05714869       3.82305620       5.38279730       21       0.15873398      -0.89340079      -0.12982906
H        8.63181621       3.61201409       9.52289502       22       0.18204500      -0.63422745       0.26991493
H        3.83561969       2.09608638       4.94973259       23      -1.94716382      -1.76069045       0.02739078
H        8.92173675       5.21725279       9.97240642       24       0.60281807       0.79925519       0.17843662
H        3.32101930       4.86147090       3.41079335       25       0.28006771      -0.24933639      -0.35509562
H        9.43348373       2.50368865      11.57573789       26      -0.67730010       0.34449306       0.57094061
H        3.62082127       5.39051073       1.05682259       27      -2.18998885       2.90105677      -1.54607892
H        9.07191706       1.94726768      13.92762937       28       0.56916726      -0.83356047       0.85703111
H        6.63807073       2.32375075       0.80415224       29      -0.37544718       0.49020731       0.09212098
H        6.03983040       5.02092925      14.21198727       30      -0.21700998       0.13122988       0.34446859
H        6.28583935       1.76070724       3.13167117       31      -0.20401885       0.12498216      -0.26145315
H        6.48270856       5.65528801      11.89884735       32      -0.46755442       0.70442247      -0.45889682
C        2.23543718       0.15576676       4.34916637       33      -1.85817242       1.83154225       3.21919537
C       10.51015444       7.13524866      10.62971225       34      -4.35140800       7.50397873       0.21014573
C        6.09848458       6.58625629       5.14730782       35       0.61688876      -0.05656580      -0.45808768
C        6.62872637       0.75930050       9.93477549       36       0.56459689       1.74442363      -5.46249914
C        7.35433346       5.90819699       3.04886786       37      -1.07084727      -0.91120648      -0.42124888
C        5.36373687       1.45984306      11.97088811       38      -0.41874057      -0.05016935      -3.57182121