68
Lattice="8.67950381 0.0 0.0 -5.046966484647718e-06 8.800057179998552 0.0 -0.2432002964975834 -1.783993518810269e-07 10.133301303794138" Properties=species:S:1:pos:R:3:spacegroup_kinds:I:1:forces:R:3 spacegroup="P 1" unit_cell=conventional occupancy="_JSON {\"0\": {\"Cd\": 1}, \"1\": {\"Cd\": 1}, \"2\": {\"Cd\": 1}, \"3\": {\"Cd\": 1}, \"4\": {\"H\": 1}, \"5\": {\"H\": 1}, \"6\": {\"H\": 1}, \"7\": {\"H\": 1}, \"8\": {\"H\": 1}, \"9\": {\"H\": 1}, \"10\": {\"H\": 1}, \"11\": {\"H\": 1}, \"12\": {\"H\": 1}, \"13\": {\"H\": 1}, \"14\": {\"H\": 1}, \"15\": {\"H\": 1}, \"16\": {\"H\": 1}, \"17\": {\"H\": 1}, \"18\": {\"H\": 1}, \"19\": {\"H\": 1}, \"20\": {\"C\": 1}, \"21\": {\"C\": 1}, \"22\": {\"C\": 1}, \"23\": {\"C\": 1}, \"24\": {\"C\": 1}, \"25\": {\"C\": 1}, \"26\": {\"C\": 1}, \"27\": {\"C\": 1}, \"28\": {\"C\": 1}, \"29\": {\"C\": 1}, \"30\": {\"C\": 1}, \"31\": {\"C\": 1}, \"32\": {\"C\": 1}, \"33\": {\"C\": 1}, \"34\": {\"C\": 1}, \"35\": {\"C\": 1}, \"36\": {\"N\": 1}, \"37\": {\"N\": 1}, \"38\": {\"N\": 1}, \"39\": {\"N\": 1}, \"40\": {\"N\": 1}, \"41\": {\"N\": 1}, \"42\": {\"N\": 1}, \"43\": {\"N\": 1}, \"44\": {\"N\": 1}, \"45\": {\"N\": 1}, \"46\": {\"N\": 1}, \"47\": {\"N\": 1}, \"48\": {\"N\": 1}, \"49\": {\"N\": 1}, \"50\": {\"N\": 1}, \"51\": {\"N\": 1}, \"52\": {\"N\": 1}, \"53\": {\"N\": 1}, \"54\": {\"N\": 1}, \"55\": {\"N\": 1}, \"56\": {\"N\": 1}, \"57\": {\"N\": 1}, \"58\": {\"N\": 1}, \"59\": {\"N\": 1}, \"60\": {\"N\": 1}, \"61\": {\"N\": 1}, \"62\": {\"N\": 1}, \"63\": {\"N\": 1}, \"64\": {\"N\": 1}, \"65\": {\"N\": 1}, \"66\": {\"N\": 1}, \"67\": {\"N\": 1}}" energy=-474.8826904296875 free_energy=-474.8826904296875 stress="-0.0018031304934993386 -0.002052603755146265 0.001244350103661418 -0.002052603755146265 0.001920677488669753 -0.003121018409729004 0.001244350103661418 -0.003121018409729004 -0.007314811460673809" pbc="T T T"
Cd      -0.12709103       6.04026897       6.36847613        0       0.29803368       0.40855110       0.01564639
Cd       4.05115296       1.62433833       8.79104785        1       0.23487988       0.40139586       0.11830397
Cd       8.56437467       2.76561006       3.74980466        2      -0.16434684      -0.45015055       0.14416787
Cd       4.34934212       7.19112409       1.32874111        3      -0.10369298      -0.52886921      -0.15461643
H        2.86189133       1.50913063       4.19317424        4      -0.53674477       0.18646580      -1.80422485
H        1.35829642       5.92245532       0.88909956        5       0.26285067       0.03536201       1.49244189
H        5.61394028       7.31716063       5.93634590        6       0.66900051      -0.13946769       2.50345182
H        7.05277104       2.92538588       9.22750454        7      -0.13571683      -0.18884782       0.21220104
H        4.08715554       1.43998876       5.35090018        8      -1.29847479      -0.02326635      -0.21029583
H       -0.08803898       5.84601395       9.83892844        9      -0.29860061      -0.11235225       0.03037465
H        4.35332066       7.39587470       4.79860426       10       1.47127962      -0.17078386       0.21507582
H        8.49731962       2.95518172       0.29855552       11       0.26656079       0.07914372       0.07493927
H        1.72921172       4.11244966       8.55749595       12      -0.05966226       0.16569342      -0.12444852
H        2.24607168       8.54488337       6.64636518       13      -0.11084807      -0.39710841       0.99424595
H        6.71270287       4.65309369       1.61310865       14      -0.29476216       0.36801276       0.32169876
H        6.19687194       0.24239521       3.47708812       15       0.13584556       0.75519824      -1.30904400
H        6.98026190       7.86488675       9.04037000       16      -0.50034237      -0.49238676       0.14297646
H        5.68547681       3.49597503       6.13971976       17      -0.01687802       0.33446914      -0.13365677
H        1.50426621       0.92903424       1.05899032       18      -0.53972393      -0.61720157       0.18345894
H        2.74854083       5.33365072       4.00134003       19       0.30804488      -1.03460014       0.14456031
C        2.44080542       2.48586550       5.92666759       20      -0.14788932      -1.58364236      -1.64606297
C        1.54794257       6.86726112       9.30935091       21      -0.61556840      -0.95470989      -0.04019761
C        6.03840478       6.33468501       4.20379774       22      -0.83930981       1.53119791       2.79974794
C        6.85977329       1.91915627       0.85379850       23       0.52924538       1.12207782      -1.91947436
C        1.81021395       3.69674856       7.55896980       24       0.27367291      -1.00237989      -0.21607757
C        2.16618004       8.08496635       7.66389041       25      -0.94448841      -0.25444454      -1.68728769
C        6.59611407       5.14841796       2.58800125       26       2.30692005      -1.97407150      -0.16020605
C        6.26643708       0.74567071       2.45873100       27      -0.50168133      -1.84004235       2.88826323
C        5.31183745       5.16600195       9.18700042       28       0.15470168      -0.38922209      -1.02645338
C        7.33779463       0.79419909       6.06588209       29       1.43803716      -2.06134439      -1.21017885
C        3.10229539       3.60563293       0.99915931       30       2.88999128       0.54321957      -2.79127073
C        1.06349004       8.03400552       4.06848909       31       0.91872865      -0.59565049      -0.37622857
C        6.49207747       6.87273340       8.97007943       32       2.55513906       1.37604451      -2.26192689
C        6.12594014       2.51946005       6.22638451       33      -0.14751115      -1.04942310       1.29626250
C        1.88899904       1.91093900       1.20168053       34       0.83888829       0.24271730      -0.55604148
C        2.27678508       6.27011179       3.88791279       35       0.34774733       2.18401766      -1.37235618
N        1.02746751       3.97181385       6.52432306       36      -0.83999711       1.30504966       0.61721390
N        2.94318450       8.39185021       8.66804966       37       0.81385636       0.49180275       0.46285570
N        7.44762950       4.79815450       3.60717070       38      -1.45218158       0.60726559      -0.77466345
N        5.45300646       0.39355673       1.48113425       39       0.24056593       0.36607742      -0.66782975
N        1.40130847       3.20947854       5.47069385       40       0.39342204       0.15157638       0.07689250
N        2.56609741       7.60899146       9.72587620       41       0.58146501       0.44153541       0.84317434
N        7.02764238       5.57326349       4.68413484       42       0.42215705      -0.40315235      -0.68678701
N        5.85247524       1.16237191       0.38257194       43      -0.13744640      -0.13746916       0.57514167
N        2.69595309       2.69526135       7.21992614       44       0.04483163       1.02720976       0.83236116
N        1.25497981       7.11696141       8.00644297       45       0.19142583       0.44012612      -0.53453749
N        5.73315815       6.09362814       2.92870111       46      -0.52251071       0.17252380      -0.80876625
N        7.17342374       1.67742777       2.14459346       47      -0.15562215       0.02558212      -0.04569535
N        3.04896268       1.49990468       5.15692405       48       2.05776811       0.14922316       2.50173569
N        0.90003495       5.89463859      10.05754765       49       0.09604762       0.43429631      -1.66164589
N        5.38956069       7.29739316       4.99485230       50      -1.80935550      -0.33524513      -3.59504461
N        7.50628689       2.89099214       0.09798894       51      -0.22136615      -0.29123753       0.19668025
N        6.89181324       6.00650890       7.94456261       52      -1.24056697       0.69387168       2.09644485
N        5.80422566       1.65682880       7.24398191       53      -0.63839930       0.39505094      -0.57312763
N        1.57188460       2.78445668       2.18031284       54      -0.53609198      -1.01750433      -0.25632486
N        2.66539053       7.17705258       2.90687112       55      -0.15751535      -1.00015259       0.81370926
N        6.09722395       4.90374252       8.11902669       56       0.06441297      -0.20199518      -0.17533261
N        6.54185841       0.50241485       7.08349901       57      -0.22597197       0.92637712       0.80686963
N        2.36858520       3.87507953       2.02592273       58      -1.11014700       0.54648781       1.72244287
N        1.89538722       8.29688266       3.03250446       59      -0.27310535      -0.49199533       0.22451726
N        5.51696490       6.41518790       9.70810216       60      -0.45760760      -0.54154485       0.71908587
N        7.09727395       1.98764105       5.46832661       61       0.20580280       0.60580468      -0.32722744
N        2.89715203       2.37019480       0.39142202       62      -1.16500592       0.79663837       1.55623937
N        1.30252737       6.78519505       4.63496910       63      -0.39036274       0.39856416       0.00279379
N        4.43687920       4.24438686       9.64455256       64       0.69683450      -1.75389957      -1.92849302
N        8.24861834       8.62259264       5.58430722       65      -1.69785571      -0.05163144       2.03510046
N        4.02039973       4.55499658       0.52003423       66      -1.79985118       0.91124284       2.66461945
N        0.18997079       0.14363420       4.53524791       67       0.37904301       1.46591949      -1.29017270
68
Lattice="8.67950381 0.0 0.0 -5.046966484647718e-06 8.800057179998552 0.0 -0.2432002964975834 -1.783993518810269e-07 10.133301303794138" Properties=species:S:1:pos:R:3:spacegroup_kinds:I:1:forces:R:3 spacegroup="P 1" unit_cell=conventional occupancy="_JSON {\"0\": {\"Cd\": 1}, \"1\": {\"Cd\": 1}, \"2\": {\"Cd\": 1}, \"3\": {\"Cd\": 1}, \"4\": {\"H\": 1}, \"5\": {\"H\": 1}, \"6\": {\"H\": 1}, \"7\": {\"H\": 1}, \"8\": {\"H\": 1}, \"9\": {\"H\": 1}, \"10\": {\"H\": 1}, \"11\": {\"H\": 1}, \"12\": {\"H\": 1}, \"13\": {\"H\": 1}, \"14\": {\"H\": 1}, \"15\": {\"H\": 1}, \"16\": {\"H\": 1}, \"17\": {\"H\": 1}, \"18\": {\"H\": 1}, \"19\": {\"H\": 1}, \"20\": {\"C\": 1}, \"21\": {\"C\": 1}, \"22\": {\"C\": 1}, \"23\": {\"C\": 1}, \"24\": {\"C\": 1}, \"25\": {\"C\": 1}, \"26\": {\"C\": 1}, \"27\": {\"C\": 1}, \"28\": {\"C\": 1}, \"29\": {\"C\": 1}, \"30\": {\"C\": 1}, \"31\": {\"C\": 1}, \"32\": {\"C\": 1}, \"33\": {\"C\": 1}, \"34\": {\"C\": 1}, \"35\": {\"C\": 1}, \"36\": {\"N\": 1}, \"37\": {\"N\": 1}, \"38\": {\"N\": 1}, \"39\": {\"N\": 1}, \"40\": {\"N\": 1}, \"41\": {\"N\": 1}, \"42\": {\"N\": 1}, \"43\": {\"N\": 1}, \"44\": {\"N\": 1}, \"45\": {\"N\": 1}, \"46\": {\"N\": 1}, \"47\": {\"N\": 1}, \"48\": {\"N\": 1}, \"49\": {\"N\": 1}, \"50\": {\"N\": 1}, \"51\": {\"N\": 1}, \"52\": {\"N\": 1}, \"53\": {\"N\": 1}, \"54\": {\"N\": 1}, \"55\": {\"N\": 1}, \"56\": {\"N\": 1}, \"57\": {\"N\": 1}, \"58\": {\"N\": 1}, \"59\": {\"N\": 1}, \"60\": {\"N\": 1}, \"61\": {\"N\": 1}, \"62\": {\"N\": 1}, \"63\": {\"N\": 1}, \"64\": {\"N\": 1}, \"65\": {\"N\": 1}, \"66\": {\"N\": 1}, \"67\": {\"N\": 1}}" energy=-473.8950500488281 free_energy=-473.8950500488281 stress="0.00883407797664404 -0.004432436544448137 -0.0026241543237119913 -0.004432436544448137 0.005848440807312727 -0.0040839132852852345 -0.0026241543237119913 -0.0040839132852852345 0.00033030883059836924" pbc="T T T"
Cd      -0.14016642       6.02356730       6.35159062        0       0.56008947       0.46949589       0.14341310
Cd       4.04834503       1.64170772       8.78632310        1       0.25140697       0.22103161       0.09005190
Cd       8.53886434       2.75417076       3.75343449        2       0.03284930      -0.42642155      -0.01779193
Cd       4.36779334       7.19778979       1.33674330        3      -0.22153157      -0.51346296      -0.27149054
H        2.88876878       1.53822700       4.21642621        4      -0.72241837       0.20436366      -1.99649763
H        1.34693129       5.92459279       0.90038145        5       0.23651680       0.02446190       1.79267108
H        5.61195719       7.31465361       5.91092524        6       1.26171732       0.01141845       4.98429966
H        7.06656879       2.91369004       9.20076212        7      -0.04981036      -0.21088977       1.52659845
H        4.10502117       1.46938942       5.34404392        8      -1.56261563      -0.00856816       0.00805245
H       -0.10204964       5.82166479       9.84835104        9      -0.72109908      -0.06269588       0.00494852
H        4.36260634       7.41503045       4.80063406       10       1.37344170      -0.29576021       0.17262743
H        8.51062845       2.95107555       0.32032023       11      -0.91093272      -0.02966508      -0.06839782
H        1.70398675       4.14138369       8.58453924       12       0.04339879       0.04507501      -0.34655836
H        2.26176214       8.52543694       6.64921743       13      -0.19214110      -0.31662440       0.71633726
H        6.69348884       4.65360214       1.63902384       14      -0.18838045      -0.05445519      -0.36208650
H        6.21515301       0.24259491       3.45888622       15      -0.09218393       0.15661886      -0.32589379
H        6.97590243       7.86729060       9.04218369       16      -0.65542001      -1.04202831       0.07834202
H        5.66055687       3.48668587       6.16148318       17      -0.19543341       0.85651761      -0.25057161
H        1.49910488       0.91433470       1.06266858       18      -0.33128741      -0.11661106       0.28340432
H        2.77613551       5.30476170       4.02291707       19       0.14199327      -0.67079037       0.12004709
C        2.42987869       2.47447386       5.95166516       20      -0.59824640      -0.63218236      -2.63486552
C        1.54290304       6.84120201       9.32089539       21      -0.16529676      -0.18764594      -0.84078944
C        6.06421996       6.32996671       4.20108878       22      -1.26277232       2.20639563       3.85416532
C        6.84823495       1.93615827       0.85038660       23      -0.38997802      -0.58005238      -0.53125757
C        1.81113814       3.72219319       7.58251035       24       0.76399982      -1.45763385      -0.70984167
C        2.15337219       8.06159170       7.65144202       25       0.86077690       1.04204869      -0.64910126
C        6.58972186       5.12538545       2.59878309       26       1.40333819      -0.75952011       0.68926227
C        6.26274047       0.72670533       2.47757218       27      -1.07306314      -1.04902804       0.55527186
C        5.30765676       5.19406456       9.17746796       28      -0.28705937      -2.49062824      -1.36260593
C        7.36743494       0.79506902       6.06584543       29      -0.09108591      -2.37558484       0.01558086
C        3.09781869       3.59578849       1.00116341       30       3.10282660       0.80093825      -2.83953357
C        1.03564426       8.04013435       4.08669983       31       3.16604066      -1.51552141      -1.79402244
C        6.50617655       6.84485458       8.96032084       32       1.75724769       2.20862484      -1.28316462
C        6.10822808       2.52876443       6.22598468       33       0.98582125      -2.87679172       1.17919350
C        1.89430599       1.90986148       1.20014960       34       0.98397887      -0.14917716      -0.58655763
C        2.30336070       6.24913768       3.89552971       35      -0.50743341       3.45010281      -1.09303033
N        1.05091436       3.96718918       6.53581051       36      -1.97040892       2.32336569       0.57513863
N        2.96072448       8.37098424       8.67887073       37       0.26733652       0.39110696      -0.97559369
N        7.42005592       4.77432764       3.62716699       38      -0.90748870       0.04633227      -1.57625020
N        5.42727199       0.40721172       1.45209232       39       0.89591563      -0.37700066       1.68316925
N        1.38155899       3.23802918       5.46269235       40       1.56779408      -0.88555372       1.01137972
N        2.59109289       7.57943834       9.69827895       41       0.06840324      -0.22299924       1.81326938
N        7.05577116       5.54818435       4.68187034       42      -0.45720577       0.29995543      -0.34871739
N        5.83048003       1.13340540       0.40130266       43       0.74929374       1.45656598      -0.54638278
N        2.71579259       2.72148274       7.21118188       44      -0.14015119       1.01633263       1.79627848
N        1.26843904       7.13998479       7.99613705       45      -1.25528336      -1.28473306       0.32130662
N        5.73639931       6.12025935       2.94536527       46       0.34052056      -1.06407094      -1.58214235
N        7.15125363       1.67629192       2.16136675       47      -0.27901435       0.06615506      -0.75729978
N        3.05158490       1.51216878       5.18087036       48       2.49302483      -0.19106257       2.26703691
N        0.87304255       5.87449839      10.07888495       49       0.88764656       0.79187667      -2.26346397
N        5.38669991       7.28169676       5.01037854       50      -1.75496745      -0.71398407      -6.16225624
N        7.48691543       2.88640450       0.11712651       51       1.24444807       0.54044926      -1.55328918
N        6.89068045       6.00841029       7.93303711       52      -1.20098543       0.32366237       2.16966462
N        5.79582922       1.64854090       7.25950964       53      -0.21075866       0.61983407      -1.35911632
N        1.60053808       2.77263874       2.19842076       54      -0.66922832      -0.74761122      -0.27262247
N        2.68962301       7.18407225       2.89829010       55      -0.95332491      -1.20375633       1.79328966
N        6.10578091       4.88938290       8.10188446       56      -0.35950106       0.23048685       0.27525547
N        6.51994092       0.47964098       7.10850147       57       0.97386229       1.99394512      -0.72880173
N        2.38649067       3.89852839       2.04912167       58      -1.03410161      -0.86673462       0.78650820
N        1.90339624       8.29717981       3.04572680       59      -0.38049364      -0.75552684       0.20128500
N        5.48915268       6.38536389       9.71105662       60       1.33615267       1.44309032       0.09571499
N        7.10841996       1.98141117       5.44069546       61      -0.86425090       0.58097953       1.21014941
N        2.91878567       2.35026856       0.36989038       62      -1.96560657       1.50151193       2.64028168
N        1.31322387       6.79848243       4.65735784       63       0.22339854      -0.33452231      -0.59084111
N        4.45111796       4.26651825       9.66859902       64       1.04208636      -2.57715845      -2.95666718
N        8.26127183       8.60266233       5.60942446       65      -1.13439572       1.32889950       0.31931773
N        3.99710392       4.55382357       0.50350806       66      -2.01687241       1.53112650       3.32113838
N        0.19975625       0.16280788       4.50671808       67      -1.24309897       0.86368674       1.14305186
68
Lattice="8.67950381 0.0 0.0 -5.046966484647718e-06 8.800057179998552 0.0 -0.2432002964975834 -1.783993518810269e-07 10.133301303794138" Properties=species:S:1:pos:R:3:spacegroup_kinds:I:1:forces:R:3 spacegroup="P 1" unit_cell=conventional occupancy="_JSON {\"0\": {\"Cd\": 1}, \"1\": {\"Cd\": 1}, \"2\": {\"Cd\": 1}, \"3\": {\"Cd\": 1}, \"4\": {\"H\": 1}, \"5\": {\"H\": 1}, \"6\": {\"H\": 1}, \"7\": {\"H\": 1}, \"8\": {\"H\": 1}, \"9\": {\"H\": 1}, \"10\": {\"H\": 1}, \"11\": {\"H\": 1}, \"12\": {\"H\": 1}, \"13\": {\"H\": 1}, \"14\": {\"H\": 1}, \"15\": {\"H\": 1}, \"16\": {\"H\": 1}, \"17\": {\"H\": 1}, \"18\": {\"H\": 1}, \"19\": {\"H\": 1}, \"20\": {\"C\": 1}, \"21\": {\"C\": 1}, \"22\": {\"C\": 1}, \"23\": {\"C\": 1}, \"24\": {\"C\": 1}, \"25\": {\"C\": 1}, \"26\": {\"C\": 1}, \"27\": {\"C\": 1}, \"28\": {\"C\": 1}, \"29\": {\"C\": 1}, \"30\": {\"C\": 1}, \"31\": {\"C\": 1}, \"32\": {\"C\": 1}, \"33\": {\"C\": 1}, \"34\": {\"C\": 1}, \"35\": {\"C\": 1}, \"36\": {\"N\": 1}, \"37\": {\"N\": 1}, \"38\": {\"N\": 1}, \"39\": {\"N\": 1}, \"40\": {\"N\": 1}, \"41\": {\"N\": 1}, \"42\": {\"N\": 1}, \"43\": {\"N\": 1}, \"44\": {\"N\": 1}, \"45\": {\"N\": 1}, \"46\": {\"N\": 1}, \"47\": {\"N\": 1}, \"48\": {\"N\": 1}, \"49\": {\"N\": 1}, \"50\": {\"N\": 1}, \"51\": {\"N\": 1}, \"52\": {\"N\": 1}, \"53\": {\"N\": 1}, \"54\": {\"N\": 1}, \"55\": {\"N\": 1}, \"56\": {\"N\": 1}, \"57\": {\"N\": 1}, \"58\": {\"N\": 1}, \"59\": {\"N\": 1}, \"60\": {\"N\": 1}, \"61\": {\"N\": 1}, \"62\": {\"N\": 1}, \"63\": {\"N\": 1}, \"64\": {\"N\": 1}, \"65\": {\"N\": 1}, \"66\": {\"N\": 1}, \"67\": {\"N\": 1}}" energy=-472.017333984375 free_energy=-472.017333984375 stress="0.00852331891655922 -0.00657628895714879 0.0017708841478452086 -0.00657628895714879 0.004220339935272932 -0.0032116116490215063 0.0017708841478452086 -0.0032116116490215063 -0.010405932553112507" pbc="T T T"
Cd      -0.11369312       6.03499014       6.36710939        0       0.35260576       0.46474245       0.11223220
Cd       4.03512275       1.65490925       8.78660243        1       0.46604577       0.05338913       0.13294756
Cd       8.55796265       2.74961523       3.78223011        2      -0.05305016      -0.30936298      -0.17696992
Cd       4.34067110       7.17525095       1.36050515        3      -0.02685395      -0.31111911      -0.39467138
H        2.86217231       1.52269550       4.24558047        4      -0.89168537       0.20186546      -2.47449923
H        1.36575847       5.95101238       0.91749285        5      -0.26308608      -0.07627686      -0.05306943
H        5.61821381       7.31891696       5.89416378        6       1.42350292       0.05734202       6.09584665
H        7.07801173       2.90972038       9.21880069        7      -0.29705495      -0.17670384       0.14902197
H        4.09950556       1.44919436       5.31618449        8      -1.31011331       0.03842340       0.19653963
H       -0.07601899       5.83735134       9.82480654        9      -1.86726320      -0.14204627      -0.19275773
H        4.33372679       7.40540798       4.78023466       10       1.60301304      -0.35708049       0.43840316
H        8.50397003       2.94681551       0.30009267       11      -0.32070795       0.03851308       0.01400168
H        1.71868767       4.12858130       8.58068444       12      -0.23363099       0.70132571       1.00563145
H        2.26973182       8.53821678       6.67734412       13      -0.07597258      -0.07392273       0.00917773
H        6.68103430       4.66796258       1.64932964       14      -0.12680404      -0.45804232      -1.21012688
H        6.19259651       0.23694118       3.48086031       15       0.23139003       0.66891807      -1.15411377
H        6.96036180       7.84927544       9.01396927       16      -0.19822067       0.23363504       0.33905065
H        5.67950276       3.46275273       6.16896692       17      -0.60484290       1.46220696      -0.20963253
H        1.50691311       0.88627372       1.04531136       18       0.12188576       1.42206490       0.72489434
H        2.76675385       5.29341492       4.00125643       19       0.42786756      -1.13684583       0.16271819
C        2.44719674       2.47580998       5.97552996       20      -0.89125723      -0.55424356      -3.66143847
C        1.55890060       6.81254214       9.29146553       21       0.66242361       1.20438457      -0.12154490
C        6.08966740       6.31504558       4.19671508       22      -2.64172888       3.57056546       4.75947571
C        6.86912266       1.93234810       0.84647694       23      -1.04435468      -0.62754029      -1.07558286
C        1.79467534       3.74554993       7.60681458       24       1.42078972      -2.68769789      -3.40402746
C        2.16830514       8.04874759       7.64029208       25       1.81311989       1.72235465       0.52245808
C        6.57772476       5.14792582       2.57717093       26       1.99073303      -1.32324731       2.29191065
C        6.28969199       0.73029670       2.46907432       27      -1.07925773      -1.36756968       1.81911063
C        5.28602718       5.22359734       9.20478666       28      -0.28224915      -5.11021662      -2.83741856
C        7.33984631       0.78339441       6.04952762       29       0.40765655      -2.17643881       0.15617985
C        3.09327676       3.60705317       1.02873560       30       4.19164753      -0.22519377      -5.01835060
C        1.03310584       8.06172819       4.09618929       31       3.94434500      -2.84368324      -1.91238379
C        6.50053341       6.87219961       8.97855729       32       0.72623229      -0.73423088      -2.06440806
C        6.08463969       2.50333286       6.21829553       33       1.00360143      -2.79016304       1.51625133
C        1.91099775       1.93890086       1.21574781       34       0.10011502      -3.17090702      -1.28394747
C        2.32257427       6.23683733       3.88071730       35      -1.74553621       5.03800106      -0.42930549
N        1.05350074       3.96909003       6.51543269       36      -1.88898706       3.05728865       2.94542503
N        2.98733127       8.34616542       8.70022365       37       0.27792805       1.38512158      -2.94435310
N        7.42002089       4.78594943       3.63870483       38      -0.54198128      -0.60940802      -3.26692939
N        5.44217174       0.39713649       1.45934044       39       0.95527184      -0.55322599       2.40155458
N        1.38525514       3.26179899       5.48658521       40       2.13585162      -2.06926298      -0.39444473
N        2.61933295       7.60279608       9.69398252       41      -1.43810296      -2.31043983       2.33964539
N        7.08430417       5.55134465       4.66402135       42      -0.69134045       0.80555034       0.56140929
N        5.81582381       1.11076729       0.42590001       43       1.49226260       2.42111254      -1.84930408
N        2.74397133       2.72877677       7.20218023       44      -0.82338971       1.92953396       3.26157427
N        1.27587550       7.16188927       7.98884515       45      -1.56093025      -2.16986847       0.52508128
N        5.71514266       6.09542805       2.96432763       46       0.22507362      -0.64341283      -2.02108145
N        7.17937748       1.70182999       2.14101302       47      -0.72285855      -0.79568028      -0.08616288
N        3.05027788       1.50731102       5.19668212       48       2.30845404      -0.21999085       2.44464850
N        0.87477296       5.88165095      10.05937653       49       2.35697603       0.68543440      -0.08425146
N        5.36195809       7.29946491       5.01639715       50      -1.30381274      -1.50645781      -7.91396236
N        7.49851003       2.87806045       0.09408004       51       0.80384803       0.29488823      -0.27278826
N        6.87247067       6.00112619       7.92440628       52      -1.52774930       0.57063013       2.80563259
N        5.78521699       1.63078499       7.25566568       53      -0.43020135       0.41333014      -1.10349131
N        1.62982384       2.79947832       2.21570920       54      -2.15838671      -2.46825886      -0.06996680
N        2.70677844       7.20412956       2.90350661       55      -1.53570175      -1.43790865       2.15819263
N        6.08239195       4.86420530       8.08885493       56      -0.43700990       1.83451283       1.36911476
N        6.51059473       0.45570231       7.11167961       57       1.11534142       2.36604548      -1.34112549
N        2.36384023       3.87559417       2.02849632       58      -0.46046656       1.89739156       2.33326197
N        1.89873401       8.31025426       3.05940449       59      -0.08108453      -0.74029577       0.05048293
N        5.46417380       6.37523106       9.73307887       60       2.34274578       3.36534119       0.20051850
N        7.08686925       2.00097867       5.44329028       61      -0.41109294      -0.67262995       1.07151413
N        2.92798759       2.32061563       0.37156963       62      -1.98158288       2.72008395       3.33808565
N        1.31318018       6.80801638       4.68194143       63       1.06148934      -0.46523219      -1.65345991
N        4.44145255       4.25655746       9.69217796       64       1.62054646      -2.07488561      -3.33718061
N        8.28747791       8.61249654       5.59934059       65      -2.53298378       1.22141612       1.77707052
N        3.97488202       4.55277707       0.50637009       66      -2.28161359       1.87131071       3.83731174
N        0.18361213       0.15873704       4.50820108       67      -0.81981874       1.67276740       0.14637560
68