92
Lattice="10.57103712 0.0 0.0 5.285493578577531 10.128374963004363 0.0 5.285433651906537 1.1952130631527276 10.097491049697128" Properties=species:S:1:pos:R:3:spacegroup_kinds:I:1:forces:R:3 spacegroup="P 1" unit_cell=conventional occupancy="_JSON {\"0\": {\"Cd\": 1}, \"1\": {\"Cd\": 1}, \"2\": {\"Cd\": 1}, \"3\": {\"Cd\": 1}, \"4\": {\"Cd\": 1}, \"5\": {\"Cd\": 1}, \"6\": {\"Cd\": 1}, \"7\": {\"Cd\": 1}, \"8\": {\"H\": 1}, \"9\": {\"H\": 1}, \"10\": {\"H\": 1}, \"11\": {\"H\": 1}, \"12\": {\"H\": 1}, \"13\": {\"H\": 1}, \"14\": {\"H\": 1}, \"15\": {\"H\": 1}, \"16\": {\"H\": 1}, \"17\": {\"H\": 1}, \"18\": {\"H\": 1}, \"19\": {\"H\": 1}, \"20\": {\"H\": 1}, \"21\": {\"H\": 1}, \"22\": {\"H\": 1}, \"23\": {\"H\": 1}, \"24\": {\"C\": 1}, \"25\": {\"C\": 1}, \"26\": {\"C\": 1}, \"27\": {\"C\": 1}, \"28\": {\"C\": 1}, \"29\": {\"C\": 1}, \"30\": {\"C\": 1}, \"31\": {\"C\": 1}, \"32\": {\"C\": 1}, \"33\": {\"C\": 1}, \"34\": {\"C\": 1}, \"35\": {\"C\": 1}, \"36\": {\"C\": 1}, \"37\": {\"C\": 1}, \"38\": {\"C\": 1}, \"39\": {\"C\": 1}, \"40\": {\"C\": 1}, \"41\": {\"C\": 1}, \"42\": {\"C\": 1}, \"43\": {\"C\": 1}, \"44\": {\"S\": 1}, \"45\": {\"S\": 1}, \"46\": {\"S\": 1}, \"47\": {\"S\": 1}, \"48\": {\"N\": 1}, \"49\": {\"N\": 1}, \"50\": {\"N\": 1}, \"51\": {\"N\": 1}, \"52\": {\"N\": 1}, \"53\": {\"N\": 1}, \"54\": {\"N\": 1}, \"55\": {\"N\": 1}, \"56\": {\"N\": 1}, \"57\": {\"N\": 1}, \"58\": {\"N\": 1}, \"59\": {\"N\": 1}, \"60\": {\"N\": 1}, \"61\": {\"N\": 1}, \"62\": {\"N\": 1}, \"63\": {\"N\": 1}, \"64\": {\"N\": 1}, \"65\": {\"N\": 1}, \"66\": {\"N\": 1}, \"67\": {\"N\": 1}, \"68\": {\"N\": 1}, \"69\": {\"N\": 1}, \"70\": {\"N\": 1}, \"71\": {\"N\": 1}, \"72\": {\"O\": 1}, \"73\": {\"O\": 1}, \"74\": {\"O\": 1}, \"75\": {\"O\": 1}, \"76\": {\"O\": 1}, \"77\": {\"O\": 1}, \"78\": {\"O\": 1}, \"79\": {\"O\": 1}, \"80\": {\"O\": 1}, \"81\": {\"O\": 1}, \"82\": {\"O\": 1}, \"83\": {\"O\": 1}, \"84\": {\"O\": 1}, \"85\": {\"O\": 1}, \"86\": {\"O\": 1}, \"87\": {\"O\": 1}, \"88\": {\"O\": 1}, \"89\": {\"O\": 1}, \"90\": {\"O\": 1}, \"91\": {\"O\": 1}}" energy=-609.77490234375 free_energy=-609.77490234375 stress="-0.0036978607531636953 0.0002846465213224292 0.0004395522701088339 0.0002846465213224292 -0.011747648939490318 -0.0007938300259411335 0.0004395522701088339 -0.0007938300259411335 -0.012869669124484062" pbc="T T T"
Cd      15.55365188       8.49388711       7.57161451        0      -0.29034865       0.00718660       0.00316275
Cd       5.58992156       2.82965495       2.52652434        1       0.28731987       0.00074714      -0.00078691
Cd       7.83511828       8.35995999       5.11927221        2       0.52690578       0.26519951      -0.24340804
Cd      18.40597615       8.62223343      10.02401318        3       0.52799702      -0.24179828       0.24048379
Cd      13.30784645       2.96453745       4.97611699        4      -0.53126729      -0.26005179       0.23956822
Cd       2.73583422       2.69999500       0.06899988        5      -0.53491521       0.25086433      -0.22247428
Cd      15.85645404      11.32358040      10.09749263        6       0.00592631       0.01221960       0.00490514
Cd       5.28546820       5.66179698       5.04873856        7       0.02290477      -0.00147702      -0.02164292
H       10.33405227       7.41042591       0.20760354        8      -0.16857037      -0.13779503       0.04370268
H       15.61649607       8.37694936       4.83703555        9      -0.05486234       0.04623674       0.07553259
H       10.80915227       3.91159754       9.88717041       10       0.09906580       0.07842200       0.04454637
H        5.52317701       2.94407150       5.26127619       11       0.06127845      -0.03542354      -0.08254100
H       10.09361584       6.77452371       8.48183415       12      -0.06339850      -0.08389563      -0.00490510
H       10.09938270      10.21385797       6.66327353       13      -0.13457097       0.13053168       0.07830474
H       11.04720262       4.55273018       1.61588893       14       0.00814542       0.03581125      -0.04907378
H       11.04725017       1.10843698       3.43496695       15       0.05488556      -0.06759772      -0.02723125
H        7.70639531       8.29239169       1.19193071       16       0.01408842       0.09800687       0.04487877
H       12.99462878       7.49661597       3.85366918       17      -0.11194794      -0.00957654       0.06173148
H       13.43474284       3.03149615       8.90352728       18       0.10849263       0.02072790       0.07619184
H        8.15165944       3.82244684       6.24375637       19       0.01071737       0.08536115       0.00221796
H        5.20029122       8.40765060       1.43632125       20      -0.08980723       0.00140797       0.02866534
H       10.48634401       7.38411894       3.61258954       21      -0.08205734      -0.00041254      -0.00210650
H       15.94106306       2.91716455       8.66402470       22       0.18518943      -0.12124417      -0.15836605
H       10.65389708       3.94237694       6.48184792       23       0.08442047      -0.00273597       0.05060511
C       12.75329495       6.46767165       8.00427450       24      -0.18808988       0.13292880       0.01682940
C       12.75533706      10.51612426       7.14380256       25      -0.25106776      -0.09291759      -0.12387894
C        8.38888177       4.85458372       2.09219739       26       0.20771742       0.04254395       0.12093903
C        8.38748239       0.80874451       2.95270715       27       0.34151667      -0.02282159       0.02428741
C       12.13121406       7.33462122       8.99938868       28       0.02718194      -0.15076452      -0.05288541
C       12.13270674       9.65177303       6.14850034       29       0.09141631       0.05175981       0.01242338
C        9.01048395       3.99149513       1.10067550       30      -0.09362154       0.05364323      -0.05509786
C        9.01023558       1.67112008       3.94830547       31      -0.11920907      -0.00578439      -0.02751306
C       10.73164442       7.38761493       9.11942778       32       0.17984554      -0.17263907      -0.10958745
C       10.73604521       9.59785051       6.03303112       33       0.04448897      -0.01141305      -0.18146223
C       10.40568012       3.93873953       0.97775413       34       0.06406362       0.17985809       0.11848395
C       10.40576139       1.72675274       4.06392593       35       0.10684863      -0.03761962       0.17255867
C        7.05652508       7.68885092       0.56235839       36      -0.11186391      -0.10493243      -0.05105317
C       12.34105646       8.10005789       4.48954757       37       0.04357338      -0.00394705      -0.09425372
C       14.08859782       3.63885740       9.53683343       38      -0.06485084      -0.09029892      -0.11993034
C        8.80035287       3.22137857       5.60787855       39       0.00267667      -0.06850389       0.02772722
C        5.66920126       7.74843074       0.70126721       40       0.06381395       0.13294545       0.13154021
C       10.95338998       8.04001031       4.35303219       41       0.05592168      -0.18214427      -0.25264600
C       15.47645282       3.57297801       9.39549690       42      -0.25502536       0.07999951       0.06869869
C       10.18668835       3.28009647       5.74877891       43       0.01342494       0.17804497       0.13907105
S       18.20071480      10.93058498       7.55601524       44       0.13077936       0.08774596      -0.26617894
S        7.62606276       6.05854817       7.58979565       45       0.16294301      -0.22451417       0.27694309
S        2.94224437       0.39348455       2.54133980       46      -0.11032354      -0.05747665       0.25584787
S       13.51465556       5.26966822       2.50743919       47      -0.16064331       0.06783978      -0.29007447
N       13.98701135       6.68634345       7.48740557       48       0.00856447      -0.13065580      -0.18137699
N       13.98839990      10.30283413       7.65819461       49       0.07209593      -0.01635467       0.16714652
N        7.15478148       4.63819776       2.61109524       50       0.06387419      -0.00636631       0.01882821
N        7.15708766       1.02283217       2.43679560       51      -0.15441273      -0.01998551      -0.15760984
N       14.16441014       5.69993112       6.60766687       52      -0.10032719       0.07684535       0.11411039
N        8.87710888       1.15831410       8.53761782       53       0.01993859      -0.02949681      -0.04752946
N        6.98183970       5.62299786       3.48456216       54      -0.23422821      -0.01323714       0.13616745
N       12.26524264      10.16220364       1.56099812       55      -0.08770290       0.16545059       0.03808697
N        8.04068262       6.41340699       3.50354850       56      -0.09779755      -0.05073786       0.24653946
N       13.32682667       9.37721960       1.54466831       57      -0.05285364      -0.03172109      -0.25044709
N       13.09735742       4.91000041       6.59325156       58       0.30848101       0.09639849      -0.31661391
N        7.81267436       1.94704742       8.55028730       59       0.21246623      -0.01996729       0.32840848
N       10.15269299       8.78623185       5.13408806       60       0.10122323      -0.05753170       0.36179274
N       10.15395618       8.19898935      10.01035262       61      -0.00400765       0.24822590      -0.08313067
N       10.99026811       2.53916758       4.96343216       62      -0.18068656       0.03290396      -0.35776126
N       10.98622436       3.12629636       0.08657330       63       0.05241388      -0.21970659       0.12856036
N       12.19313796       5.37461740       7.45673436       64       0.03713427      -0.01770581       0.17805558
N        6.90825111       1.48181136       7.68537301       65       0.04309729       0.05182360      -0.10871594
N        8.94951892       5.94927700       2.64111996       66      -0.07372449      -0.02763875      -0.21327913
N       14.23653066       9.84189395       2.40856309       67      -0.14803468      -0.00839129       0.10943148
N       12.93735158       8.09151651       9.76154251       68      -0.12603700       0.13814917       0.09963574
N       12.93828566       8.89420897       5.38191176       69      -0.13254730      -0.07441664      -0.00470089
N        8.20469862       3.23394496       0.33683929       70       0.16351382      -0.14934078      -0.12320814
N        8.20325780       2.43148134       4.71072116       71       0.15174736       0.07310368       0.06636412
O       17.47200462       9.89447313       6.74163843       72      -0.40092239      -0.53568876      -0.42723209
O       17.47133634       7.09248314       8.40483422       73      -0.43388736       0.56322038       0.44947970
O        3.66879314       1.43096374       3.35745441       74       0.40865403       0.51016945       0.40832609
O        3.66666388       4.23035082       1.69166601       75       0.40840554      -0.50685287      -0.40914395
O       16.17208720       9.12053789       9.68907613       76       0.02723366       0.01858674      -0.04060103
O       16.17594761       7.86420742       5.45510273       77      -0.10133460       0.07948034      -0.07832510
O        4.96984581       2.20552140       0.41213801       78       0.04754698       0.01910916      -0.07067999
O        4.96991365       3.46038751       4.64049297       79       0.08357784      -0.09178685       0.09262439
O        8.49409152       6.72405505       6.57464507       80       0.46184182       0.33132076      -0.57770509
O       19.06781509      10.26008628       8.57207367       81       0.42541587      -0.28544489       0.52803844
O       12.64624160       4.60252407       3.52374321       82      -0.43577263      -0.30219817       0.54883206
O        2.07485075       1.06380845       1.52617183       83      -0.42993811       0.30184966      -0.55217439
O        7.31776242       9.73634616       3.42359206       84      -0.39167655      -0.30616796       0.26427925
O       12.60355205       6.05732035       1.62547790       85      -0.36908257       0.28126237      -0.24625546
O       13.82532833       1.58985012       6.67359731       86       0.37416717       0.26929399      -0.23905995
O        8.53943405       5.26920607       8.47147342       87       0.33265018      -0.25236636       0.22240984
O       11.91638563       1.70127904       8.19442501       88      -0.60032558       0.51250964       0.43834206
O        6.62925276       5.15650975       6.94935492       89      -0.57670224      -0.48479229      -0.39665696
O        9.22542197       9.62283408       1.90047326       90       0.59229809      -0.50019270      -0.40987065
O       14.51276905       6.16751101       3.14676633       91       0.61855203       0.51679426       0.42386928
92
Lattice="10.57103712 0.0 0.0 5.285493578577531 10.128374963004363 0.0 5.285433651906537 1.1952130631527276 10.097491049697128" Properties=species:S:1:pos:R:3:spacegroup_kinds:I:1:forces:R:3 spacegroup="P 1" unit_cell=conventional occupancy="_JSON {\"0\": {\"Cd\": 1}, \"1\": {\"Cd\": 1}, \"2\": {\"Cd\": 1}, \"3\": {\"Cd\": 1}, \"4\": {\"Cd\": 1}, \"5\": {\"Cd\": 1}, \"6\": {\"Cd\": 1}, \"7\": {\"Cd\": 1}, \"8\": {\"H\": 1}, \"9\": {\"H\": 1}, \"10\": {\"H\": 1}, \"11\": {\"H\": 1}, \"12\": {\"H\": 1}, \"13\": {\"H\": 1}, \"14\": {\"H\": 1}, \"15\": {\"H\": 1}, \"16\": {\"H\": 1}, \"17\": {\"H\": 1}, \"18\": {\"H\": 1}, \"19\": {\"H\": 1}, \"20\": {\"H\": 1}, \"21\": {\"H\": 1}, \"22\": {\"H\": 1}, \"23\": {\"H\": 1}, \"24\": {\"C\": 1}, \"25\": {\"C\": 1}, \"26\": {\"C\": 1}, \"27\": {\"C\": 1}, \"28\": {\"C\": 1}, \"29\": {\"C\": 1}, \"30\": {\"C\": 1}, \"31\": {\"C\": 1}, \"32\": {\"C\": 1}, \"33\": {\"C\": 1}, \"34\": {\"C\": 1}, \"35\": {\"C\": 1}, \"36\": {\"C\": 1}, \"37\": {\"C\": 1}, \"38\": {\"C\": 1}, \"39\": {\"C\": 1}, \"40\": {\"C\": 1}, \"41\": {\"C\": 1}, \"42\": {\"C\": 1}, \"43\": {\"C\": 1}, \"44\": {\"S\": 1}, \"45\": {\"S\": 1}, \"46\": {\"S\": 1}, \"47\": {\"S\": 1}, \"48\": {\"N\": 1}, \"49\": {\"N\": 1}, \"50\": {\"N\": 1}, \"51\": {\"N\": 1}, \"52\": {\"N\": 1}, \"53\": {\"N\": 1}, \"54\": {\"N\": 1}, \"55\": {\"N\": 1}, \"56\": {\"N\": 1}, \"57\": {\"N\": 1}, \"58\": {\"N\": 1}, \"59\": {\"N\": 1}, \"60\": {\"N\": 1}, \"61\": {\"N\": 1}, \"62\": {\"N\": 1}, \"63\": {\"N\": 1}, \"64\": {\"N\": 1}, \"65\": {\"N\": 1}, \"66\": {\"N\": 1}, \"67\": {\"N\": 1}, \"68\": {\"N\": 1}, \"69\": {\"N\": 1}, \"70\": {\"N\": 1}, \"71\": {\"N\": 1}, \"72\": {\"O\": 1}, \"73\": {\"O\": 1}, \"74\": {\"O\": 1}, \"75\": {\"O\": 1}, \"76\": {\"O\": 1}, \"77\": {\"O\": 1}, \"78\": {\"O\": 1}, \"79\": {\"O\": 1}, \"80\": {\"O\": 1}, \"81\": {\"O\": 1}, \"82\": {\"O\": 1}, \"83\": {\"O\": 1}, \"84\": {\"O\": 1}, \"85\": {\"O\": 1}, \"86\": {\"O\": 1}, \"87\": {\"O\": 1}, \"88\": {\"O\": 1}, \"89\": {\"O\": 1}, \"90\": {\"O\": 1}, \"91\": {\"O\": 1}}" energy=-609.8226318359375 free_energy=-609.8226318359375 stress="-0.003212451236322522 9.73194109974429e-05 0.0005989607307128608 9.73194109974429e-05 -0.011335690505802631 -0.0005613414105027914 0.0005989607307128608 -0.0005613414105027914 -0.012165729887783527" pbc="T T T"
Cd      15.55096011       8.49615890       7.56875938        0      -0.27684060      -0.00831576       0.02795540
Cd       5.59101546       2.82770504       2.52391747        1       0.27270204       0.01071586       0.01158201
Cd       7.83717915       8.36131538       5.12219625        2       0.50702852       0.25960648      -0.24207635
Cd      18.40877427       8.62040115      10.02551717        3       0.50335592      -0.21265347       0.21502396
Cd      13.30512026       2.96206184       4.97729449        4      -0.51741469      -0.22340700       0.20950447
Cd       2.73448656       2.69888833       0.06931345        5      -0.51427257       0.25013369      -0.21638572
Cd      15.85776270      11.32429451      10.09805757        6      -0.00224165      -0.00664195      -0.01126991
Cd       5.28521758       5.65952529       5.04884340        7       0.02468944       0.02839115      -0.02060177
H       10.33170584       7.40825569       0.20584405        8      -0.14039725      -0.11607549       0.02145687
H       15.61579747       8.37480827       4.83858009        9      -0.14805534       0.13469088      -0.02858219
H       10.81133041       3.91441134       9.88933535       10       0.12920780       0.10254987       0.00062567
H        5.52576897       2.94355403       5.25910359       11      -0.00312795       0.02276637      -0.15294570
H       10.09618467       6.77591211       8.47956765       12      -0.06623493      -0.07886695      -0.00668037
H       10.10140091      10.21593232       6.66077166       13      -0.17148773       0.14667252       0.10668052
H       11.04937899       4.55284509       1.61661621       14      -0.01658630       0.02139802      -0.06457039
H       11.04467306       1.10827001       3.43604593       15       0.15972833      -0.14430189      -0.11183256
H        7.70674526       8.28994564       1.19038686       16       0.00421295       0.09919789       0.04104567
H       12.99298197       7.49432493       3.85543434       17      -0.09171119      -0.00339823       0.06210676
H       13.43645351       3.03386905       8.90338551       18       0.00727180      -0.06745685      -0.01506980
H        8.15074747       3.82330735       6.24508737       19      -0.01394431       0.11294114       0.03575485
H        5.19756976       8.40607766       1.43735745       20      -0.07872869       0.04045951       0.06250676
H       10.48711278       7.38424990       3.61037161       21      -0.08820942      -0.00299610      -0.00590864
H       15.94392043       2.91455726       8.66187039       22       0.10679211      -0.04349756      -0.08339879
H       10.65553468       3.94296440       6.48382957       23       0.06725591      -0.06650804      -0.02164510
C       12.75110401       6.46946792       8.00500958       24      -0.06824243       0.04507911      -0.05146130
C       12.75324174      10.51343503       7.14358991       25      -0.03760539      -0.00105448       0.01244190
C        8.38930522       4.85628779       2.09303150       26       0.14896999      -0.03628018       0.04314645
C        8.39012188       0.80657386       2.95392683       27       0.06449524       0.05924627      -0.04917992
C       12.12911744       7.33225015       9.00154293       28       0.21040013      -0.05949514      -0.05322842
C       12.13274288       9.65344498       6.14873712       29       0.05172735      -0.04907879      -0.07837956
C        9.00970762       3.99384501       1.10188106       30      -0.09538789      -0.09238391      -0.21963811
C        9.00982232       1.67066505       3.94536092       31      -0.00867897       0.09155361       0.14309660
C       10.73443929       7.38852131       9.11754077       32      -0.05210442      -0.11410833      -0.00895140
C       10.73636685       9.59883247       6.03223757       33       0.10013463      -0.01857542      -0.19012628
C       10.40520883       3.94033444       0.97815431       34       0.10181545       0.11398977       0.06982221
C       10.40707173       1.72521906       4.06220130       35      -0.11359247       0.04409088       0.22722684
C        7.05501534       7.68737010       0.56087450       36      -0.01163793       0.02194822       0.10123807
C       12.34157359       8.10040252       4.49077263       37      -0.01494354      -0.07583600      -0.19230460
C       14.08637003       3.63881766       9.53453925       38       0.07229686      -0.02532902      -0.06870946
C        8.79941878       3.22382340       5.61055819       39       0.15166104      -0.17808278      -0.07804635
C        5.67119836       7.75117523       0.70360336       40      -0.17562360      -0.03009544      -0.04202183
C       10.95412577       8.04018026       4.35036031       41       0.04581100      -0.13939126      -0.16650556
C       15.47365270       3.57376397       9.39273142       42      -0.04272136       0.03418057       0.06311716
C       10.18853372       3.27859788       5.74782832       43      -0.09428082       0.32403332       0.27208155
S       18.20262642      10.93327892       7.55323555       44       0.06872471       0.00937135      -0.11176105
S        7.62633590       6.05742856       7.59037229       45       0.12069012      -0.13773583       0.24676973
S        2.94105606       0.39172003       2.54413014       46      -0.00694246       0.09672646       0.10664698
S       13.51378600       5.27080922       2.50675338       47      -0.11655486       0.06668085      -0.31059080
N       13.98743805       6.68338958       7.48705970       48       0.01508141       0.04911503      -0.06254619
N       13.99081579      10.30042527       7.65935794       49      -0.09701373       0.04518820       0.12500773
N        7.15356524       4.63802049       2.60941112       50       0.11076419       0.03190593       0.06642886
N        7.15448558       1.02148395       2.43465914       51       0.02400491       0.06319970       0.02336353
N       14.16600729       5.70053576       6.60891568       52      -0.12191394       0.04536912       0.08483811
N        8.87490186       1.15768169       8.53851473       53       0.18505916      -0.13186899      -0.01972869
N        6.98340727       5.62101495       3.48613662       54      -0.26943409      -0.00607992       0.13179198
N       12.26410465      10.16405695       1.56317590       55      -0.09621382       0.07476394      -0.08201677
N        8.04058845       6.41237269       3.50563649       56      -0.05670712      -0.07139631       0.20370841
N       13.32597250       9.37920174       1.54312360       57      -0.05905339      -0.07915775      -0.22553121
N       13.09913034       4.91258773       6.59168735       58       0.21310152       0.04371190      -0.27470541
N        7.81450999       1.94414880       8.55299401       59       0.11122262       0.00549766       0.26619685
N       10.15484122       8.78621102       5.13455141       60       0.05961067      -0.08822988       0.28960204
N       10.15270342       8.20145179      10.00865951       61       0.17151006       0.26371419      -0.04605066
N       10.98775157       2.53972611       4.96093792       62      -0.05988038      -0.00148556      -0.36003047
N       10.98735636       3.12411548       0.08709205       63      -0.11683312      -0.18501057       0.12063965
N       12.19355697       5.37696005       7.45741545       64       0.03464284      -0.08018616       0.09843509
N        6.91008212       1.47997242       7.68611650       65      -0.02311423       0.05506386      -0.11477938
N        8.94998341       5.94907771       2.63949249       66      -0.09838292       0.04603818      -0.11956998
N       14.23443012       9.84145847       2.41082493       67      -0.08503966      -0.06681523       0.04732966
N       12.93587180       8.09177899       9.76367250       68      -0.11252427       0.00984179      -0.02561124
N       12.93676062       8.89320814       5.38138760       69      -0.07421522       0.00902128       0.09836234
N        8.20445848       3.23147512       0.33440151       70       0.17465363       0.02978293       0.06404372
N        8.20597599       2.43323767       4.71213164       71       0.09964050       0.02420262      -0.00481103
O       17.46925027       9.89337036       6.74169040       72      -0.32064509      -0.44749025      -0.38760513
O       17.46849104       7.09495426       8.40664756       73      -0.34632552       0.44646561       0.35851499
O        3.67141923       1.43334906       3.35970743       74       0.34088653       0.41415140       0.33887035
O        3.66899952       4.22996927       1.68918175       75       0.34918213      -0.42155653      -0.34686863
O       16.17280410       9.11928436       9.68964249       76       0.00506940       0.01144835      -0.02677788
O       16.17388919       7.86682683       5.45618632       77       0.00656304      -0.03325345       0.00827600
O        4.97192992       2.20510694       0.40953825       78       0.00363770       0.00108463      -0.02366833
O        4.96915200       3.46110268       4.63863117       79       0.14080143      -0.16214044       0.15665343
O        8.49639062       6.72431166       6.57197492       80       0.38958469       0.26967511      -0.46855646
O       19.07071049      10.25900815       8.57426943       81       0.32571378      -0.19264068       0.39341003
O       12.64591523       4.60284908       3.52431591       82      -0.41440615      -0.28578502       0.50648761
O        2.07448013       1.06671295       1.52363802       83      -0.35465348       0.22050616      -0.42722762
O        7.31938428       9.73800532       3.42442895       84      -0.44724765      -0.35510093       0.31675509
O       12.60159997       6.05963159       1.62254741       85      -0.31278139       0.21388158      -0.16603920
O       13.82764716       1.59266658       6.67253715       86       0.35895240       0.23796505      -0.21578518
O        8.53867231       5.26634898       8.47223900       87       0.31057295      -0.21488559       0.18675908
O       11.91386821       1.70402886       8.19474784       88      -0.49120250       0.43264514       0.37200052
O        6.62745673       5.15641532       6.94666411       89      -0.51485133      -0.43998528      -0.35079214
O        9.22590268       9.62211923       1.89814068       90       0.53180897      -0.44689626      -0.35787740
O       14.51251261       6.17035563       3.14911313       91       0.55897152       0.46086684       0.37114671
92
Lattice="10.57103712 0.0 0.0 5.285493578577531 10.128374963004363 0.0 5.285433651906537 1.1952130631527276 10.097491049697128" Properties=species:S:1:pos:R:3:spacegroup_kinds:I:1:forces:R:3 spacegroup="P 1" unit_cell=conventional occupancy="_JSON {\"0\": {\"Cd\": 1}, \"1\": {\"Cd\": 1}, \"2\": {\"Cd\": 1}, \"3\": {\"Cd\": 1}, \"4\": {\"Cd\": 1}, \"5\": {\"Cd\": 1}, \"6\": {\"Cd\": 1}, \"7\": {\"Cd\": 1}, \"8\": {\"H\": 1}, \"9\": {\"H\": 1}, \"10\": {\"H\": 1}, \"11\": {\"H\": 1}, \"12\": {\"H\": 1}, \"13\": {\"H\": 1}, \"14\": {\"H\": 1}, \"15\": {\"H\": 1}, \"16\": {\"H\": 1}, \"17\": {\"H\": 1}, \"18\": {\"H\": 1}, \"19\": {\"H\": 1}, \"20\": {\"H\": 1}, \"21\": {\"H\": 1}, \"22\": {\"H\": 1}, \"23\": {\"H\": 1}, \"24\": {\"C\": 1}, \"25\": {\"C\": 1}, \"26\": {\"C\": 1}, \"27\": {\"C\": 1}, \"28\": {\"C\": 1}, \"29\": {\"C\": 1}, \"30\": {\"C\": 1}, \"31\": {\"C\": 1}, \"32\": {\"C\": 1}, \"33\": {\"C\": 1}, \"34\": {\"C\": 1}, \"35\": {\"C\": 1}, \"36\": {\"C\": 1}, \"37\": {\"C\": 1}, \"38\": {\"C\": 1}, \"39\": {\"C\": 1}, \"40\": {\"C\": 1}, \"41\": {\"C\": 1}, \"42\": {\"C\": 1}, \"43\": {\"C\": 1}, \"44\": {\"S\": 1}, \"45\": {\"S\": 1}, \"46\": {\"S\": 1}, \"47\": {\"S\": 1}, \"48\": {\"N\": 1}, \"49\": {\"N\": 1}, \"50\": {\"N\": 1}, \"51\": {\"N\": 1}, \"52\": {\"N\": 1}, \"53\": {\"N\": 1}, \"54\": {\"N\": 1}, \"55\": {\"N\": 1}, \"56\": {\"N\": 1}, \"57\": {\"N\": 1}, \"58\": {\"N\": 1}, \"59\": {\"N\": 1}, \"60\": {\"N\": 1}, \"61\": {\"N\": 1}, \"62\": {\"N\": 1}, \"63\": {\"N\": 1}, \"64\": {\"N\": 1}, \"65\": {\"N\": 1}, \"66\": {\"N\": 1}, \"67\": {\"N\": 1}, \"68\": {\"N\": 1}, \"69\": {\"N\": 1}, \"70\": {\"N\": 1}, \"71\": {\"N\": 1}, \"72\": {\"O\": 1}, \"73\": {\"O\": 1}, \"74\": {\"O\": 1}, \"75\": {\"O\": 1}, \"76\": {\"O\": 1}, \"77\": {\"O\": 1}, \"78\": {\"O\": 1}, \"79\": {\"O\": 1}, \"80\": {\"O\": 1}, \"81\": {\"O\": 1}, \"82\": {\"O\": 1}, \"83\": {\"O\": 1}, \"84\": {\"O\": 1}, \"85\": {\"O\": 1}, \"86\": {\"O\": 1}, \"87\": {\"O\": 1}, \"88\": {\"O\": 1}, \"89\": {\"O\": 1}, \"90\": {\"O\": 1}, \"91\": {\"O\": 1}}" energy=-609.8564453125 free_energy=-609.8564453125 stress="-0.002642631996423006 5.228859663475305e-05 0.0002673455164767802 5.228859663475305e-05 -0.010600005276501179 -0.0004877005412708968 0.0002673455164767802 -0.0004877005412708968 -0.011562775820493698" pbc="T T T"
Cd      15.54880671       8.49855520       7.56589222        0      -0.26117939      -0.00627644       0.03843442
Cd       5.59247415       2.83037393       2.52309096        1       0.25943232       0.01788123       0.01607000
Cd       7.83769460       8.36013864       5.12361290        2       0.51397932       0.28113443      -0.25938281
Cd      18.41156638       8.62080292      10.02748599        3       0.46638748      -0.21025640       0.18374434
Cd      13.30297510       2.96224364       4.97901974        4      -0.49932373      -0.20580304       0.18718399
Cd       2.73201439       2.70119864       0.07047029        5      -0.49568877       0.24406761      -0.22335982
Cd      15.85764877      11.32556773      10.09866985        6       0.00255997      -0.02253119      -0.00755927
Cd       5.28313402       5.66065521       5.05128362        7       0.04570458       0.01417690      -0.03415025
H       10.33249841       7.40576378       0.20474507        8      -0.12648147      -0.09671699      -0.00326297
H       15.61286396       8.37450608       4.83665591        9       0.01738511      -0.00880336       0.14437668
H       10.81025242       3.91534981       9.88700031       10       0.14168786       0.11421323      -0.01472776
H        5.52588584       2.94610356       5.25652947       11       0.12163538      -0.09205592      -0.00858153
H       10.09484597       6.77538813       8.47692252       12      -0.04444416      -0.05840714       0.01336461
H       10.09972952      10.21790011       6.65855362       13      -0.07414643       0.08328042       0.05025585
H       11.05129163       4.55093679       1.61594622       14       0.02088998       0.07977325      -0.00650346
H       11.04601132       1.10570960       3.43652991       15       0.19288608      -0.15867747      -0.14039312