84
Lattice="6.84968715 0.0 0.0 -3.1231071211093755 10.691512961445826 0.0 1.5487203347590376e-05 9.55568368658476e-06 11.933181659986124" Properties=species:S:1:pos:R:3:spacegroup_kinds:I:1:forces:R:3 spacegroup="P 1" unit_cell=conventional occupancy="_JSON {\"0\": {\"Cd\": 1}, \"1\": {\"Cd\": 1}, \"2\": {\"Cd\": 1}, \"3\": {\"Cd\": 1}, \"4\": {\"H\": 1}, \"5\": {\"H\": 1}, \"6\": {\"H\": 1}, \"7\": {\"H\": 1}, \"8\": {\"H\": 1}, \"9\": {\"H\": 1}, \"10\": {\"H\": 1}, \"11\": {\"H\": 1}, \"12\": {\"H\": 1}, \"13\": {\"H\": 1}, \"14\": {\"H\": 1}, \"15\": {\"H\": 1}, \"16\": {\"H\": 1}, \"17\": {\"H\": 1}, \"18\": {\"H\": 1}, \"19\": {\"H\": 1}, \"20\": {\"H\": 1}, \"21\": {\"H\": 1}, \"22\": {\"H\": 1}, \"23\": {\"H\": 1}, \"24\": {\"C\": 1}, \"25\": {\"C\": 1}, \"26\": {\"C\": 1}, \"27\": {\"C\": 1}, \"28\": {\"C\": 1}, \"29\": {\"C\": 1}, \"30\": {\"C\": 1}, \"31\": {\"C\": 1}, \"32\": {\"C\": 1}, \"33\": {\"C\": 1}, \"34\": {\"C\": 1}, \"35\": {\"C\": 1}, \"36\": {\"C\": 1}, \"37\": {\"C\": 1}, \"38\": {\"C\": 1}, \"39\": {\"C\": 1}, \"40\": {\"C\": 1}, \"41\": {\"C\": 1}, \"42\": {\"C\": 1}, \"43\": {\"C\": 1}, \"44\": {\"S\": 1}, \"45\": {\"S\": 1}, \"46\": {\"S\": 1}, \"47\": {\"S\": 1}, \"48\": {\"N\": 1}, \"49\": {\"N\": 1}, \"50\": {\"N\": 1}, \"51\": {\"N\": 1}, \"52\": {\"N\": 1}, \"53\": {\"N\": 1}, \"54\": {\"N\": 1}, \"55\": {\"N\": 1}, \"56\": {\"N\": 1}, \"57\": {\"N\": 1}, \"58\": {\"N\": 1}, \"59\": {\"N\": 1}, \"60\": {\"N\": 1}, \"61\": {\"N\": 1}, \"62\": {\"N\": 1}, \"63\": {\"N\": 1}, \"64\": {\"N\": 1}, \"65\": {\"N\": 1}, \"66\": {\"N\": 1}, \"67\": {\"N\": 1}, \"68\": {\"O\": 1}, \"69\": {\"O\": 1}, \"70\": {\"O\": 1}, \"71\": {\"O\": 1}, \"72\": {\"O\": 1}, \"73\": {\"O\": 1}, \"74\": {\"O\": 1}, \"75\": {\"O\": 1}, \"76\": {\"O\": 1}, \"77\": {\"O\": 1}, \"78\": {\"O\": 1}, \"79\": {\"O\": 1}, \"80\": {\"O\": 1}, \"81\": {\"O\": 1}, \"82\": {\"O\": 1}, \"83\": {\"O\": 1}}" energy=-565.7155151367188 free_energy=-565.7155151367188 stress="-0.010322092100977898 -0.000775196764152497 2.0327643142081797e-05 -0.000775196764152497 -0.006178629118949175 0.0001278107229154557 2.0327643142081797e-05 0.0001278107229154557 -0.015437833033502102" pbc="T T T"
Cd       0.11408537       6.10539378       1.47485301        0       0.00530167      -0.18732968      -0.12804328
Cd       2.05139103       9.92979542       7.44068189        1       0.00128467       0.18164605      -0.12132879
Cd       3.61169059       4.58565842      10.45894234        2       0.01150761       0.15339844       0.12409636
Cd       1.67943055       0.76343884       4.48960777        3       0.00123394      -0.16504957       0.16576616
H       -0.22245071       5.20045223       8.09996098        4       0.05686837       0.04032070       0.15770648
H        5.50782484       0.14672180       2.13479766        5      -0.05666603      -0.06564429       0.10913071
H        3.94415585       5.49277870       3.83033027        6      -0.05423885      -0.07440161      -0.11890873
H       -1.78356386      10.54686571       9.79859784        7       0.05898268       0.07303437      -0.09223926
H        1.31237238       2.14213186       7.21672829        8      -0.03241475       0.13081995       0.01569205
H        3.97501721       3.20457407       1.25344954        9       0.09368536      -0.24480960       0.02042302
H        2.41434004       8.55184519       4.71436180       10       0.10418558      -0.26609635      -0.01891870
H       -0.24875513       7.48543920      10.68104776       11      -0.04072921       0.14485192       0.03974699
H        0.89061847       3.25565465       8.52685578       12       0.06543463      -0.05511016       0.04391611
H        4.39804321       2.09566211       2.55944816       13      -0.04475869      -0.02689499       0.15330219
H        2.83409351       7.43577452       3.40804026       14      -0.04847641       0.02548645      -0.02882323
H       -0.67118819       8.59999845       9.37070012       15       0.05771415      -0.08490180       0.13441393
H        1.26339126       2.96308939       2.21510638       16       0.03669822       0.00138442       0.01094186
H        4.02142503       2.38479531       8.18243276       17      -0.05054724       0.04676236      -0.08263671
H        2.46251929       7.72940300       9.71609483       18      -0.04855793       0.04692926       0.06457439
H       -0.29793709       8.30610781       3.74861866       19       0.08018097      -0.09930642       0.18749362
H       -0.58965288       7.11542228       6.79960123       20      -0.07333061       0.13167393      -0.02323965
H        2.75266743       8.92001954       0.83233011       21       0.06719267      -0.18243349      -0.00084547
H        4.31192587       3.57620399       5.13468317       22       0.08626764      -0.19861902      -0.01808613
H        0.97560411       1.76904103      11.09952900       23      -0.10484253       0.24042410      -0.01280051
C        1.02911127       3.49602018       3.13759646       24       0.01709384      -0.09324205      -0.34915608
C        4.25723279       1.85233159       9.10083853       25       0.05164381      -0.18854529      -0.11997218
C        2.69913789       7.19824287       8.79647496       26      -0.04225354      -0.04662650       0.36835927
C       -0.53072492       8.83731222       2.83303462       27      -0.13041838       0.26682186       0.02739873
C        0.36086632       5.04504603       4.48568127       28      -0.16585456       0.51242065      -0.09822495
C        4.92859623       0.30093113      10.45206733       29       0.11272827      -0.48832658      -0.14647965
C        3.36775545       5.64987519       7.45044008       30       0.12981033      -0.67703730       0.04845327
C       -1.20029206      10.39010142       1.48379168       31      -0.18297812       0.64599133       0.04889512
C       -0.23184499       6.21813221       6.28902580       32       0.12351204      -0.50782877       0.52007419
C        2.39150942       9.81378414       0.32108147       33      -0.04697631       0.67886823       0.80833554
C        3.95366121       4.47308091       5.64018792       34      -0.10933530       0.48917335      -0.18122564
C        1.33214397       0.87669843      11.61216507       35       0.09119307      -0.60187352      -0.66411233
C        0.57188273       3.95809541       6.64106782       36      -0.09750009       0.12444302      -0.12008387
C        4.71911275       1.38895562       0.67419563       37       0.08661374      -0.30873185      -0.06361397
C        3.15997424       6.73551537       5.29292746       38       0.04531074      -0.36426815       0.22167629
C       -0.99524518       9.30524095      11.25805478       39       0.01111528       0.12787175       0.20862088
C        0.69906247       3.89703473       5.23269204       40       0.26555353      -0.31940866       0.00862199
C        4.58562449       1.44694815      11.20232365       41      -0.26380628       0.36572868      -0.31393442
C        3.02453074       6.79371293       6.69910587       42      -0.20568433       0.38292515       0.18804210
C       -0.85852050       9.24681624       0.73289951       43       0.24633992      -0.46769053       0.18578407
S        0.13219024       4.72107142      10.74564418       44       0.13810320       0.22401625      -0.16710496
S        5.15813479       0.62256344       4.77594739       45      -0.23377043      -0.03224513       0.00849722
S        3.59650330       5.96948857       1.19148470       46      -0.28237385      -0.20636725      -0.01705156
S       -1.43118367      10.06922481       7.15390958       47       0.23344287       0.18544284       0.18215302
N        0.57312794       4.76618042       3.16713208       48       0.04570477      -0.07524189       0.09807503
N        4.71370410       0.57551831       9.12978861       49      -0.07231821       0.30566454       0.28584599
N        3.14814882       5.92362515       8.77084287       50       0.00513286       0.19172303      -0.24972251
N       -0.98888868      10.11558695       2.80407759       51       0.13319619      -0.38096803      -0.22124290
N        1.13204537       2.92558677       4.35402127       52      -0.12974903       0.26653284       0.27391800
N        4.15092990       2.41845512      10.31945274       53       0.17068499      -0.28187421       0.29151958
N        2.59408783       7.76636561       7.58220537       54       0.14977396      -0.24846193      -0.42840379
N       -0.42849872       8.26939797       1.61491752       55      -0.16585460       0.40970379      -0.31855667
N       -0.08721410       6.22811819       4.98486034       56       0.10169674      -0.20584919      -0.66328937
N        2.25466155       9.81077692      10.95575393       57      -0.16065100       0.15834443      -1.01155937
N        3.81438653       4.46534529       6.94976967       58      -0.10465833       0.24372175       0.50407505
N        1.47221003       0.88316588       0.97811765       59       0.17551512      -0.25892043       1.00580478
N        0.06137607       5.15464704       7.09305367       60      -0.17569710       0.40166220      -0.02858919
N        5.22631556       0.18948022       1.12622731       61       0.17214301      -0.39612025      -0.00039536
N        3.66123598       5.53249769       4.83857278       62       0.16412243      -0.19995251      -0.05174699
N       -1.50126137      10.50513232      10.80789658       63      -0.15559541       0.23153520      -0.13675952
N        0.88106899       3.02299749       7.52362386       64      -0.00297374      -0.22548874       0.14336944
N        4.40780073       2.31917211       1.55784352       65      -0.09691884       0.54668552       0.05894511
N        2.84627310       7.66436323       4.41251161       66      -0.11353038       0.58517182      -0.31439012
N       -0.68065634       8.36797600      10.37966093       67      -0.04338301      -0.14182113      -0.41935700
O       -0.51373841       4.13658069       0.00947452       68      -0.30042905      -0.27069420       0.79698408
O        5.80203904       1.21477754       5.97454867       69       0.25745225       0.21412797       0.71415144
O        4.23529680       6.55729361      11.92589476       70       0.33445376       0.29123294      -0.81087816
O       -2.07103516       9.47998874       5.95842121       71      -0.33774656      -0.27119982      -0.86434847
O        0.72892459       6.05615141      11.14510867       72       0.31875935       0.38793045       0.34449130
O        1.43681414       9.98336931       5.18034002       73      -0.32508159      -0.45122701       0.33876717
O        2.99703884       4.63688157       0.78593902       74      -0.30656993      -0.42941853      -0.32317439
O        2.29479367       0.71063370       6.75684975       75       0.28343517       0.38840848      -0.35823303
O        1.21250982       3.83625993      10.21099626       76       0.56209081      -0.32850125      -0.11744583
O        4.07330141       1.50995136       4.24438961       77      -0.49721289       0.27210712      -0.10141855
O        2.51077833       6.85070901       1.72048063       78      -0.56230754       0.35755372       0.17662916
O       -0.35036770       9.18154936       7.68707149       79       0.55246693      -0.32103661       0.14640264
O       -0.87246845       4.95330889       9.65568765       80      -0.65838516      -0.00667292      -0.48632470
O        6.16106407       0.39362112       3.69143647       81       0.72748762      -0.02332779      -0.59871560
O        4.59965352       5.73707945       2.27334094       82       0.74869001      -0.01906284       0.63612145
O       -2.43822472      10.29737477       8.24038546       83      -0.65722811       0.01608736       0.52416682
84
Lattice="6.84968715 0.0 0.0 -3.1231071211093755 10.691512961445826 0.0 1.5487203347590376e-05 9.55568368658476e-06 11.933181659986124" Properties=species:S:1:pos:R:3:spacegroup_kinds:I:1:forces:R:3 spacegroup="P 1" unit_cell=conventional occupancy="_JSON {\"0\": {\"Cd\": 1}, \"1\": {\"Cd\": 1}, \"2\": {\"Cd\": 1}, \"3\": {\"Cd\": 1}, \"4\": {\"H\": 1}, \"5\": {\"H\": 1}, \"6\": {\"H\": 1}, \"7\": {\"H\": 1}, \"8\": {\"H\": 1}, \"9\": {\"H\": 1}, \"10\": {\"H\": 1}, \"11\": {\"H\": 1}, \"12\": {\"H\": 1}, \"13\": {\"H\": 1}, \"14\": {\"H\": 1}, \"15\": {\"H\": 1}, \"16\": {\"H\": 1}, \"17\": {\"H\": 1}, \"18\": {\"H\": 1}, \"19\": {\"H\": 1}, \"20\": {\"H\": 1}, \"21\": {\"H\": 1}, \"22\": {\"H\": 1}, \"23\": {\"H\": 1}, \"24\": {\"C\": 1}, \"25\": {\"C\": 1}, \"26\": {\"C\": 1}, \"27\": {\"C\": 1}, \"28\": {\"C\": 1}, \"29\": {\"C\": 1}, \"30\": {\"C\": 1}, \"31\": {\"C\": 1}, \"32\": {\"C\": 1}, \"33\": {\"C\": 1}, \"34\": {\"C\": 1}, \"35\": {\"C\": 1}, \"36\": {\"C\": 1}, \"37\": {\"C\": 1}, \"38\": {\"C\": 1}, \"39\": {\"C\": 1}, \"40\": {\"C\": 1}, \"41\": {\"C\": 1}, \"42\": {\"C\": 1}, \"43\": {\"C\": 1}, \"44\": {\"S\": 1}, \"45\": {\"S\": 1}, \"46\": {\"S\": 1}, \"47\": {\"S\": 1}, \"48\": {\"N\": 1}, \"49\": {\"N\": 1}, \"50\": {\"N\": 1}, \"51\": {\"N\": 1}, \"52\": {\"N\": 1}, \"53\": {\"N\": 1}, \"54\": {\"N\": 1}, \"55\": {\"N\": 1}, \"56\": {\"N\": 1}, \"57\": {\"N\": 1}, \"58\": {\"N\": 1}, \"59\": {\"N\": 1}, \"60\": {\"N\": 1}, \"61\": {\"N\": 1}, \"62\": {\"N\": 1}, \"63\": {\"N\": 1}, \"64\": {\"N\": 1}, \"65\": {\"N\": 1}, \"66\": {\"N\": 1}, \"67\": {\"N\": 1}, \"68\": {\"O\": 1}, \"69\": {\"O\": 1}, \"70\": {\"O\": 1}, \"71\": {\"O\": 1}, \"72\": {\"O\": 1}, \"73\": {\"O\": 1}, \"74\": {\"O\": 1}, \"75\": {\"O\": 1}, \"76\": {\"O\": 1}, \"77\": {\"O\": 1}, \"78\": {\"O\": 1}, \"79\": {\"O\": 1}, \"80\": {\"O\": 1}, \"81\": {\"O\": 1}, \"82\": {\"O\": 1}, \"83\": {\"O\": 1}}" energy=-565.6873779296875 free_energy=-565.6873779296875 stress="-0.010452969931066036 -0.0007514376775361598 5.288744796416722e-05 -0.0007514376775361598 -0.006331712007522583 -0.00011431043094489723 5.288744796416722e-05 -0.00011431043094489723 -0.016086608171463013" pbc="T T T"
Cd       0.11455453       6.10311624       1.47198716        0       0.00913143      -0.15004097      -0.11224775
Cd       2.04987602       9.92987440       7.43783060        1      -0.00994463       0.17606747      -0.09013823
Cd       3.61413251       4.58502633      10.46005506        2       0.00441740       0.17105910       0.11378714
Cd       1.68144554       0.76052257       4.48723263        3      -0.00705918      -0.14599472       0.18267499
H       -0.22486002       5.19874113       8.09987956        4       0.04867161       0.06900019       0.21495181
H        5.51001058       0.14647714       2.13710882        5      -0.09718242      -0.07149611      -0.05192015
H        3.94140604       5.49030148       3.82990018        6      -0.07008582      -0.07978210      -0.03999889
H       -1.78125966      10.54410919       9.79703383        7       0.05478410       0.08265129      -0.07026520
H        1.31530194       2.14436928       7.21453331        8      -0.07166325       0.19858527       0.04380517
H        3.97203215       3.20584118       1.25628912        9       0.17972615      -0.39954886       0.07642369
H        2.41567521       8.55116564       4.71244568       10       0.06341000      -0.18995997       0.03276901
H       -0.24865229       7.48724365      10.67880647       11       0.03628924      -0.00674886       0.11728728
H        0.89351378       3.25729429       8.52440376       12       0.06190367      -0.04183174       0.13957503
H        4.39847798       2.09589836       2.55805420       13      -0.03285554      -0.08350835       0.31310207
H        2.83209666       7.43514584       3.40908467       14      -0.05242283       0.02632324      -0.06801122
H       -0.67082186       8.59834400       9.36803325       15       0.05949667      -0.10799129       0.24485758
H        1.26552928       2.96129572       2.21806814       16       0.03426824      -0.03001237      -0.06793278
H        4.02424862       2.38663365       8.18423154       17      -0.08529171       0.09489065      -0.17059633
H        2.46051007       7.72718191       9.71906283       18      -0.04312091       0.05722544       0.06071228
H       -0.29506834       8.30726694       3.75112430       19       0.05615343      -0.06100515       0.10314277
H       -0.59174350       7.11452950       6.79983940       20      -0.07208131       0.16924538      -0.02808787
H        2.75345310       8.92241957       0.83495581       21       0.04419141      -0.13741723      -0.05463929
H        4.30945687       3.57680647       5.13633667       22       0.11019123      -0.25123453      -0.03065279
H        0.97351667       1.76615524      11.10140746       23      -0.15672687       0.39146540      -0.10457624
C        1.02699039       3.49353140       3.13687282       24       0.01338630       0.03632102      -0.18549591
C        4.25488424       1.85455091       9.10027779       25       0.16116010      -0.36754590       0.06055325
C        2.70047842       7.19868934       8.79883620       26      -0.03888840      -0.06228094       0.25410387
C       -0.53049536       8.83803699       2.83263774       27      -0.05388521       0.19623560       0.15958047
C        0.36347859       5.04364819       4.48464626       28      -0.21970525       0.59180558       0.02123424
C        4.93142881       0.30339081      10.45346862       29       0.04391325      -0.48921609      -0.21068016
C        3.36840413       5.65084329       7.44789839       30       0.12358518      -0.65383875       0.30206576
C       -1.19829588      10.38726214       1.48418267       31      -0.28028616       0.87761903      -0.08172123
C       -0.23030634       6.22068245       6.28750760       32       0.11858116      -0.60898942       0.67065930
C        2.39182473       9.81676253       0.31973900       33       0.03061770       0.48530322       0.91047227
C        3.95394689       4.47219443       5.64232972       34      -0.13709782       0.50619531      -0.13319930
C        1.33145597       0.87957885      11.61065231       35       0.14982921      -0.87967962      -0.57803047
C        0.56941004       3.96048252       6.64331719       36      -0.03541543       0.11622170      -0.22590366
C        4.71971341       1.39165178       0.67451635       37       0.14458877      -0.49760681      -0.12440439
C        3.16284950       6.73257616       5.29209476       38      -0.07531126      -0.13985693       0.22085109
C       -0.99681660       9.30653301      11.25848669       39       0.09526765      -0.01139879       0.13168524
C        0.70057762       3.89817704       5.23347515       40       0.27491879      -0.35423157       0.04193109
C        4.58465223       1.44986973      11.20245630       41      -0.19281241       0.31584382      -0.25285503
C        3.02743778       6.79120212       6.69770099       42      -0.31177387       0.64177084       0.29572228
C       -0.85676449       9.24908939       0.73268120       43       0.27771398      -0.58285904       0.19290429
S        0.13361735       4.72033334      10.74335336       44       0.11373964       0.24862123       0.00187576
S        5.15854131       0.62518141       4.77771412       45      -0.29047352      -0.17021617      -0.05741479
S        3.59921266       5.96894606       1.18914337       46      -0.48264107      -0.15469152       0.17567429
S       -1.43252410      10.07170122       7.15400725       47       0.33207047       0.03472652       0.07929860
N        0.57136935       4.76725233       3.16850278       48       0.10047305      -0.22567178      -0.01105547
N        4.71225942       0.57371129       9.13095618       49      -0.10584808       0.46524388       0.27800259
N        3.15101355       5.92408101       8.77249778       50      -0.01342063       0.22725976      -0.34848645
N       -0.98627695      10.11569767       2.80203483       51       0.09715319      -0.33656728      -0.12546569
N        1.13466537       2.92597472       4.35576885       52      -0.16177221       0.25920734       0.22505619
N        4.15366004       2.42062735      10.32118979       53       0.11789109      -0.26945141       0.16608930
N        2.59328141       7.76900270       7.58357040       54       0.23725885      -0.45422205      -0.46549284
N       -0.42554620       8.27233296       1.61611368       55      -0.16431454       0.30223927      -0.41154894
N       -0.08515206       6.22657819       4.98650464       56       0.10373114      -0.16936880      -0.78984779
N        2.25634759       9.81312319      10.95625871       57      -0.16394967       0.15484031      -1.11793542
N        3.81378288       4.46779305       6.95231172       58      -0.04987495       0.12898174       0.42551571
N        1.46942975       0.88062221       0.97549792       59       0.21861139      -0.24707316       1.10822678
N        0.06324747       5.15675209       7.09585094       60      -0.20366430       0.44443643      -0.13939539
N        5.22708583       0.18759002       1.12328109       61       0.15068734      -0.16658483       0.26047060
N        3.65951487       5.53031954       4.84114871       62       0.23869768      -0.23372525      -0.26678136
N       -1.50288967      10.50413952      10.80785647       63      -0.16621637       0.29543960      -0.20025426
N        0.87986650       3.02504081       7.52379716       64       0.04099546      -0.35876492       0.06123120
N        4.41066562       2.31672178       1.56055837       65      -0.23264790       0.87041152      -0.10307757
N        2.84453014       7.66488098       4.41242590       66      -0.00184244       0.35821328      -0.25628451
N       -0.67856921       8.36576437      10.38041384       67      -0.18227035       0.17047451      -0.52372533
O       -0.51664360       4.13922173       0.01117566       68      -0.23942080      -0.23743634       0.71070403
O        5.79922839       1.21326170       5.97434118       69       0.33210391       0.28531942       0.82970434
O        4.23237740       6.55794354      11.92719592       70       0.39519760       0.34287921      -0.92440295
O       -2.07160249       9.48098218       5.95546935       71      -0.29552287      -0.22406581      -0.80660903
O        0.72993885       6.05660942      11.14273289       72       0.33289456       0.35295099       0.35128403
O        1.43858554       9.98202800       5.17975149       73      -0.33141249      -0.39712191       0.32195520
O        2.99617253       4.63631249       0.78655365       74      -0.28821605      -0.42490971      -0.31734863
O        2.29556186       0.71055044       6.75878494       75       0.29698572       0.43160987      -0.38155609
O        1.21078825       3.83527706      10.20959768       76       0.60386992      -0.36425194      -0.11589262
O        4.07604484       1.51281479       4.24731641       77      -0.54756570       0.29444376      -0.12188178
O        2.50825367       6.85274567       1.72291378       78      -0.43074524       0.23742257       0.10699467
O       -0.35063113       9.17936527       7.68663710       79       0.49966639      -0.27149728       0.11248814
O       -0.86955826       4.95600302       9.65817436       80      -0.74736804      -0.00525985      -0.57292253
O        6.15939961       0.39188983       3.69315127       81       0.75876451      -0.01569171      -0.63709205
O        4.60130766       5.73768745       2.27250458       82       0.73276746      -0.02163726       0.63577658
O       -2.43576615      10.29548665       8.23775830       83      -0.75695789       0.04373424       0.62062973
84
Lattice="6.84968715 0.0 0.0 -3.1231071211093755 10.691512961445826 0.0 1.5487203347590376e-05 9.55568368658476e-06 11.933181659986124" Properties=species:S:1:pos:R:3:spacegroup_kinds:I:1:forces:R:3 spacegroup="P 1" unit_cell=conventional occupancy="_JSON {\"0\": {\"Cd\": 1}, \"1\": {\"Cd\": 1}, \"2\": {\"Cd\": 1}, \"3\": {\"Cd\": 1}, \"4\": {\"H\": 1}, \"5\": {\"H\": 1}, \"6\": {\"H\": 1}, \"7\": {\"H\": 1}, \"8\": {\"H\": 1}, \"9\": {\"H\": 1}, \"10\": {\"H\": 1}, \"11\": {\"H\": 1}, \"12\": {\"H\": 1}, \"13\": {\"H\": 1}, \"14\": {\"H\": 1}, \"15\": {\"H\": 1}, \"16\": {\"H\": 1}, \"17\": {\"H\": 1}, \"18\": {\"H\": 1}, \"19\": {\"H\": 1}, \"20\": {\"H\": 1}, \"21\": {\"H\": 1}, \"22\": {\"H\": 1}, \"23\": {\"H\": 1}, \"24\": {\"C\": 1}, \"25\": {\"C\": 1}, \"26\": {\"C\": 1}, \"27\": {\"C\": 1}, \"28\": {\"C\": 1}, \"29\": {\"C\": 1}, \"30\": {\"C\": 1}, \"31\": {\"C\": 1}, \"32\": {\"C\": 1}, \"33\": {\"C\": 1}, \"34\": {\"C\": 1}, \"35\": {\"C\": 1}, \"36\": {\"C\": 1}, \"37\": {\"C\": 1}, \"38\": {\"C\": 1}, \"39\": {\"C\": 1}, \"40\": {\"C\": 1}, \"41\": {\"C\": 1}, \"42\": {\"C\": 1}, \"43\": {\"C\": 1}, \"44\": {\"S\": 1}, \"45\": {\"S\": 1}, \"46\": {\"S\": 1}, \"47\": {\"S\": 1}, \"48\": {\"N\": 1}, \"49\": {\"N\": 1}, \"50\": {\"N\": 1}, \"51\": {\"N\": 1}, \"52\": {\"N\": 1}, \"53\": {\"N\": 1}, \"54\": {\"N\": 1}, \"55\": {\"N\": 1}, \"56\": {\"N\": 1}, \"57\": {\"N\": 1}, \"58\": {\"N\": 1}, \"59\": {\"N\": 1}, \"60\": {\"N\": 1}, \"61\": {\"N\": 1}, \"62\": {\"N\": 1}, \"63\": {\"N\": 1}, \"64\": {\"N\": 1}, \"65\": {\"N\": 1}, \"66\": {\"N\": 1}, \"67\": {\"N\": 1}, \"68\": {\"O\": 1}, \"69\": {\"O\": 1}, \"70\": {\"O\": 1}, \"71\": {\"O\": 1}, \"72\": {\"O\": 1}, \"73\": {\"O\": 1}, \"74\": {\"O\": 1}, \"75\": {\"O\": 1}, \"76\": {\"O\": 1}, \"77\": {\"O\": 1}, \"78\": {\"O\": 1}, \"79\": {\"O\": 1}, \"80\": {\"O\": 1}, \"81\": {\"O\": 1}, \"82\": {\"O\": 1}, \"83\": {\"O\": 1}}" energy=-565.6798706054688 free_energy=-565.6798706054688 stress="-0.010325552895665169 -0.0009125741198658943 0.0003326427540741861 -0.0009125741198658943 -0.006472621578723192 -0.00031763064907863736 0.0003326427540741861 -0.00031763064907863736 -0.01585773192346096" pbc="T T T"
Cd       0.11396873       6.10137936       1.46903907        0      -0.00061343      -0.13715655      -0.07487093
Cd       2.04820261       9.92743469       7.43924599        1      -0.02200266       0.18804923      -0.12642527
Cd       3.61631066       4.58794354      10.45825778        2       0.01922926       0.13458602       0.13737908
Cd       1.68046077       0.76128207       4.48438514        3      -0.00175359      -0.16000497       0.20449933
H       -0.22432800       5.19619662       8.09783666        4       0.02352288       0.08658905       0.26712352
H        5.51291949       0.14895842       2.13766614        5      -0.10656486      -0.10416343      -0.09919885
H        3.94381520       5.49292919       3.83034855        6      -0.06173756      -0.11227242      -0.03354803
H       -1.78112152      10.54210732       9.79567458        7       0.05680994       0.10314780      -0.01878546
H        1.31349181       2.14514372       7.21404173        8      -0.06093557       0.17596480       0.04872715
H        3.96917662       3.20704944       1.25340858        9       0.20727852      -0.45379660       0.12539166
H        2.41438315       8.54855932       4.71040524       10       0.01199831      -0.07695508       0.10570239
H       -0.24732032       7.48652241      10.67653486       11      -0.00042765       0.05933952       0.13153741
H        0.89439644       3.25841376       8.52212118       12       0.06103960      -0.03299756       0.22919759
H        4.40121216       2.09490192       2.55512604       13      -0.05347963      -0.08415718       0.48180407
H        2.82987751       7.43699465       3.40751733       14      -0.04180045       0.03183361       0.06811100
H       -0.67119365       8.59757815       9.36963288       15       0.05142803      -0.09704454       0.25815618
H        1.26748096       2.95849394       2.22073289       16       0.04243378      -0.04283275      -0.11740212
H        4.02463398       2.38792034       8.18227023       17      -0.07376236       0.06338847      -0.14223213
H        2.46330206       7.72461799       9.72205400       18      -0.02811855       0.02311882      -0.03549163
H       -0.29674171       8.30545892       3.75295607       19       0.03621482       0.02351090      -0.04518583
H       -0.59451649       7.11722383       6.80109855       20      -0.05028515       0.14613692      -0.04513652
H        2.75427179       8.92479719       0.83404886       21       0.05166409      -0.15857407      -0.03932044
H        4.30670583       3.57469683       5.13632283       22       0.13924071      -0.30654159      -0.04408340
H        0.97612132       1.76549021      11.10235252       23      -0.14081728       0.36553037      -0.09399600
C        1.02887473       3.49090436       3.13764465       24      -0.10960539       0.33553597      -0.27974331
C        4.25501986       1.85219835       9.09776660       25       0.13479796      -0.23176463       0.19720680
C        2.70207207       7.19684922       8.79728642       26      -0.10738564       0.04878306       0.39274815
C       -0.52846451       8.84059612       2.82970019       27      -0.00542465      -0.00662294       0.51103961
C        0.36410689       5.04645820       4.48616068       28      -0.15879013       0.36449111      -0.09086572
C        4.93315288       0.30431963      10.45396419       29       0.01723750      -0.55883640      -0.23758088
C        3.36875555       5.65112586       7.44892754       30       0.17662579      -0.76672959       0.25179899
C       -1.20038291      10.39024134       1.48417821       31      -0.12015156       0.55576307      -0.06306760
C       -0.22904720       6.22355978       6.28918685       32       0.09974197      -0.66453856       0.65899992
C        2.39145296       9.81928608       0.32185748       33       0.10055688       0.30895871       0.72751701
C        3.95571377       4.46921614       5.64287525       34      -0.19683930       0.60456574      -0.01403345
C        1.33424349       0.87818812      11.61248628       35       0.07338181      -0.79873908      -0.83072084