120
Lattice="10.25576316 0.0 0.0 2.988817153493279 11.253723490184768 0.0 2.577582201213336 4.411604478196907 10.508826503936158" Properties=species:S:1:pos:R:3:spacegroup_kinds:I:1:forces:R:3 spacegroup="P 1" unit_cell=conventional occupancy="_JSON {\"0\": {\"Zn\": 1}, \"1\": {\"Zn\": 1}, \"2\": {\"Zn\": 1}, \"3\": {\"Zn\": 1}, \"4\": {\"H\": 1}, \"5\": {\"H\": 1}, \"6\": {\"H\": 1}, \"7\": {\"H\": 1}, \"8\": {\"H\": 1}, \"9\": {\"H\": 1}, \"10\": {\"H\": 1}, \"11\": {\"H\": 1}, \"12\": {\"H\": 1}, \"13\": {\"H\": 1}, \"14\": {\"H\": 1}, \"15\": {\"H\": 1}, \"16\": {\"H\": 1}, \"17\": {\"H\": 1}, \"18\": {\"H\": 1}, \"19\": {\"H\": 1}, \"20\": {\"H\": 1}, \"21\": {\"H\": 1}, \"22\": {\"H\": 1}, \"23\": {\"H\": 1}, \"24\": {\"H\": 1}, \"25\": {\"H\": 1}, \"26\": {\"H\": 1}, \"27\": {\"H\": 1}, \"28\": {\"H\": 1}, \"29\": {\"H\": 1}, \"30\": {\"H\": 1}, \"31\": {\"H\": 1}, \"32\": {\"H\": 1}, \"33\": {\"H\": 1}, \"34\": {\"H\": 1}, \"35\": {\"H\": 1}, \"36\": {\"H\": 1}, \"37\": {\"H\": 1}, \"38\": {\"H\": 1}, \"39\": {\"H\": 1}, \"40\": {\"H\": 1}, \"41\": {\"H\": 1}, \"42\": {\"H\": 1}, \"43\": {\"H\": 1}, \"44\": {\"C\": 1}, \"45\": {\"C\": 1}, \"46\": {\"C\": 1}, \"47\": {\"C\": 1}, \"48\": {\"C\": 1}, \"49\": {\"C\": 1}, \"50\": {\"C\": 1}, \"51\": {\"C\": 1}, \"52\": {\"C\": 1}, \"53\": {\"C\": 1}, \"54\": {\"C\": 1}, \"55\": {\"C\": 1}, \"56\": {\"C\": 1}, \"57\": {\"C\": 1}, \"58\": {\"C\": 1}, \"59\": {\"C\": 1}, \"60\": {\"C\": 1}, \"61\": {\"C\": 1}, \"62\": {\"C\": 1}, \"63\": {\"C\": 1}, \"64\": {\"C\": 1}, \"65\": {\"C\": 1}, \"66\": {\"C\": 1}, \"67\": {\"C\": 1}, \"68\": {\"C\": 1}, \"69\": {\"C\": 1}, \"70\": {\"C\": 1}, \"71\": {\"C\": 1}, \"72\": {\"C\": 1}, \"73\": {\"C\": 1}, \"74\": {\"C\": 1}, \"75\": {\"C\": 1}, \"76\": {\"C\": 1}, \"77\": {\"C\": 1}, \"78\": {\"C\": 1}, \"79\": {\"C\": 1}, \"80\": {\"C\": 1}, \"81\": {\"C\": 1}, \"82\": {\"C\": 1}, \"83\": {\"C\": 1}, \"84\": {\"C\": 1}, \"85\": {\"C\": 1}, \"86\": {\"C\": 1}, \"87\": {\"C\": 1}, \"88\": {\"N\": 1}, \"89\": {\"N\": 1}, \"90\": {\"N\": 1}, \"91\": {\"N\": 1}, \"92\": {\"N\": 1}, \"93\": {\"N\": 1}, \"94\": {\"N\": 1}, \"95\": {\"N\": 1}, \"96\": {\"N\": 1}, \"97\": {\"N\": 1}, \"98\": {\"N\": 1}, \"99\": {\"N\": 1}, \"100\": {\"O\": 1}, \"101\": {\"O\": 1}, \"102\": {\"O\": 1}, \"103\": {\"O\": 1}, \"104\": {\"O\": 1}, \"105\": {\"O\": 1}, \"106\": {\"O\": 1}, \"107\": {\"O\": 1}, \"108\": {\"O\": 1}, \"109\": {\"O\": 1}, \"110\": {\"O\": 1}, \"111\": {\"O\": 1}, \"112\": {\"O\": 1}, \"113\": {\"O\": 1}, \"114\": {\"O\": 1}, \"115\": {\"O\": 1}, \"116\": {\"O\": 1}, \"117\": {\"O\": 1}, \"118\": {\"O\": 1}, \"119\": {\"O\": 1}}" energy=-801.2706298828125 free_energy=-801.2706298828125 stress="-0.0014020142843946815 0.0009993304265663028 0.00035037240013480186 0.0009993304265663028 -0.0030605471692979336 0.0002097565884469077 0.00035037240013480186 0.0002097565884469077 -0.0032881207298487425" pbc="T T T"
Zn       8.04858757       7.01980097       3.00738401        0      -0.17824377      -0.03422790      -0.04854036
Zn       7.77222164       8.64678448       7.50032882        1       0.17727984       0.02862281       0.04430257
Zn      12.86056990       6.56168830      10.39057690        2       0.01701258      -0.00975803      -0.07280090
Zn       2.95772094       9.10679051       0.11685253        3       0.00611110      -0.01044369       0.07534039
H       10.00025139       7.73881446       0.42499374        4      -0.03251357      -0.01563239      -0.05764522
H        5.82256676       7.92566792      10.08082711        5      -0.01574540       0.01610517       0.05020581
H        8.92951496      11.81799952       8.78299166        6      -0.06129111       0.03262395       0.06725563
H        6.89233121       3.84763254       1.72490560        7       0.00737671      -0.03328906      -0.12003936
H       12.64821410      12.89370092       8.48034268        8      -0.04480307      -0.03442007       0.02095634
H        3.17248907       2.77149221       2.02695650        9       0.02165102       0.02932039      -0.01954842
H       11.11744620      13.09465516       7.59279298       10      -0.08194393       0.02866039       0.00717986
H        4.70303754       2.57138058       2.91377275       11       0.06980604      -0.01247509      -0.00266405
H       10.98232429      10.69019558       7.08857840       12      -0.05191621      -0.06566924      -0.00785431
H        4.83774358       4.97702120       3.41895158       13      -0.01758142       0.03650568      -0.02322984
H       12.55392547      11.32798348       6.53825714       14       0.00078389       0.00532979      -0.00321344
H        3.26798968       4.33636860       3.96766356       15      -0.04928059       0.00203810       0.04281946
H       10.94014473       8.80673315       8.82105779       16      -0.00726563       0.01333529      -0.02206600
H        4.87971302       6.85955479       1.68658119       17       0.05152564       0.00630416       0.01729117
H        4.45866972      10.67727968       8.21051821       18      -0.00161800      -0.01933740       0.03833797
H       11.36349063       4.98891866       2.29712123       19       0.00184959       0.03837873      -0.04975940
H        5.71968843       4.16536960       6.62677821       20      -0.01502205      -0.03513636      -0.00252068
H       10.10034355      11.50191793       3.87959623       21       0.00967884       0.04765397       0.01416735
H        7.94665167       2.56469333       3.31669005       22      -0.00084396       0.00831657      -0.02406357
H        7.87357428      13.10235067       7.19063525       23       0.03010961      -0.00214852      -0.00996973
H       11.30139149       6.06865293       5.36778494       24      -0.00653080       0.04533565       0.04753040
H        4.51924943       9.59786369       5.13867143       25       0.02668719      -0.01932770      -0.04917740
H       12.71134977       9.81016177       3.77456810       26       0.00269036      -0.04893647       0.00178589
H        3.10818376       5.85702985       6.73233763       27       0.00185198       0.03892653       0.00450251
H       10.08438036       4.10774085       4.59406738       28      -0.01728744       0.01611495       0.02948623
H        5.73575957      11.55986783       5.91159419       29       0.02141452      -0.02165419      -0.02067393
H        5.01495353      11.81798361       3.52666643       30      -0.00182071       0.01580924       0.03928256
H       10.80543978       3.84880656       6.98042878       31      -0.00168528      -0.00565118      -0.02841020
H        9.80149423      11.77285843       1.73295545       32       0.02235757      -0.03770342       0.01400264
H        6.01871547       3.89356730       8.77362656       33       0.01304107       0.04220573       0.01209721
H        8.17070943       4.90733378       8.10659048       34      -0.00959451      -0.00126461       0.04367928
H        7.64927922      10.75877163       2.39977429       35       0.00533470      -0.00242828       0.00238042
H        4.33963915       5.91011257       8.49331432       36      -0.07070689       0.06399054       0.06993333
H       11.48144742       9.75768408       2.01466795       37       0.07434712      -0.05681047      -0.08150932
H        3.98632935       4.61087407       9.44610592       38      -0.08217209      -0.02952269      -0.06428465
H       11.83441610      11.05669775       1.06069640       39       0.06996235       0.04804274       0.05744945
H        6.21297395       8.82260645       2.98959432       40       0.03725537      -0.13891765      -0.03449392
H        9.60741370       6.84406681       7.51712590       41      -0.02348990       0.11901533       0.05637730
H        7.08794402       8.91247594       4.33048205       42      -0.00006530      -0.02248096       0.04194769
H        8.73404173       6.75468717       6.17488032       43       0.00893309       0.03514746      -0.02396113
C        8.94476727       7.61846185       0.18000122       44       0.00071052      -0.02073719       0.04268669
C        6.87579722       8.04881068      10.32746609       45       0.04095513       0.02695046      -0.09509219
C        9.63689606      11.86267605       9.60350752       46       0.03317702      -0.12755547       0.12748906
C        6.18286588       3.80452349       0.90324355       47       0.01028910       0.10096901      -0.01835913
C       11.70231381      12.40028736       8.21110846       48       0.13394409      -0.31215131      -0.36200523
C        4.11637778       3.26663146       2.29736448       49      -0.07203892       0.26883435       0.28980333
C       11.93678012      11.11263924       7.42347856       50       0.01526769       0.47719863       0.03783295
C        3.88124693       4.55342454       3.08249033       51       0.10537284      -0.43148333      -0.02505815
C       12.00519558       9.02722646       8.83030609       52       0.02202702      -0.04914460       0.02806662
C        3.81577934       6.64107969       1.67687089       53      -0.11956653      -0.04748494      -0.01632772
C       13.94195726       9.98982146       8.54251825       54      -0.09255381       0.07931194       0.07842273
C        1.87917853       5.67775037       1.96425058       55       0.01026059      -0.07760513      -0.11244046
C        7.36407382       4.86182850       4.64167040       56      -0.01685522      -0.06508124      -0.01229766
C        8.45693922      10.80473951       5.86465959       57      -0.00469483       0.06053358       0.05141904
C        6.86432361       3.48692286       4.93855631       58       0.03290427      -0.03820935       0.06370538
C        8.95505890      12.18043011       5.56753482       59      -0.01221162       0.02554548      -0.05641355
C        6.02018462       3.29387578       6.03978147       60       0.05632110       0.03975660       0.02498469
C        9.79953647      12.37375812       4.46700376       61      -0.03489346      -0.05362597      -0.06147657
C        7.26086198       2.39793520       4.14838956       62      -0.00552379       0.01981052       0.01018611
C        8.56002900      13.26939972       6.35761322       63      -0.05259508      -0.02491719       0.05277038
C       10.61202261       8.04148760       3.67617636       64      -0.00445074      -0.05561862       0.10418206
C        5.20884315       7.62550538       6.83024318       65      -0.05185854      -0.03495176      -0.04880267
C       11.86812116       7.94689256       4.48550691       66      -0.02862301      -0.04059187      -0.02445156
C        3.95312804       7.71999159       6.02081800       67      -0.00242899       0.02794782       0.01243691
C       12.07199085       6.83439715       5.31708841       68       0.02349404      -0.05256477      -0.00273188
C        3.74899176       8.83317957       5.18961241       69      -0.05869998       0.00251086       0.00276533
C       12.84560019       8.94845408       4.42983534       70      -0.01636581       0.07970876       0.02788313
C        2.97475443       6.71800147       6.07657405       71       0.05240158      -0.03836459      -0.02677377
C       10.69630768       2.54830542       2.49435590       72      -0.04853890       0.02353723       0.04223984
C        5.12345460      13.12008834       8.01277231       73       0.05881780      -0.07836874      -0.06905013
C       11.14398436       2.36053863       3.91489808       74       0.01050615      -0.00899933       0.03163986
C        4.67492572      13.30612889       6.59182027       75       0.00355914       0.02236936      -0.00191334
C       10.72384068       3.27822909       4.89376159       76       0.02433095      -0.00871891      -0.02065771
C        5.09549650      12.38883416       5.61311354       77      -0.01689958       0.00294486       0.02861322
C        4.70097226      12.53754937       4.28547681       78      -0.02746735      -0.02085935       0.01186834
C       11.11901743       3.12937851       6.22201644       79       0.00615509       0.02476236      -0.06026162
C       10.25789943       5.57959501       9.76106705       80      -0.05736625      -0.00093658      -0.03671287
C        5.56353610      10.08741535       0.74526560       81      -0.00483608      -0.01577483       0.05322692
C        8.94171282       4.97194255      10.13700388       82       0.04113543       0.04618780       0.02742324
C        6.87791810      10.69544082       0.37006176       83       0.03058089      -0.03815276      -0.01192445
C        9.06322786      11.53579694       0.97332850       84      -0.08985542       0.02920240       0.08207256
C        6.75885285       4.12962773       9.53363878       85      -0.00520572      -0.03785115      -0.08591953
C        7.97835397       4.68780339       9.15830718       86       0.00796206      -0.04740589      -0.03958821
C        7.84195903      10.97917978       1.34981538       87       0.01313042       0.05564503      -0.05507663
N        7.98939825       7.29134487       1.03361230       88      -0.05420218       0.01131343       0.09732613
N        7.83198414       8.37706773       9.47364145       89       0.00822149      -0.03430391      -0.07755877
N        6.79245645       7.18521631       0.35884235       90       0.04633853      -0.01784407       0.03567278
N        9.02785366       8.48114669      10.14900424       91      -0.02170381       0.04426080      -0.07020594
N       10.97235636      12.14126594       9.45192770       92      -0.08387932       0.27476799       0.03501403
N        4.84706611       3.52434766       1.05451572       93       0.10145554      -0.25707921       0.02457327
N       12.92570751       8.33206282       9.47910243       94       0.00838041       0.04840130       0.00564221
N        2.89337936       7.33313211       1.02755930       95       0.08855806       0.07244179      -0.03809084
N        3.89785734       8.93713205       9.30097376       96      -0.01780200      -0.18044995       0.06783984
N       11.92325987       6.73199473       1.20481794       97      -0.03005676       0.07169028      -0.00669215
N       12.60813211      10.08221716       8.21951306       98       0.08892778      -0.23848051      -0.09285271
N        3.21093765       5.58317580       2.28536710       99      -0.01516700       0.30498961       0.10490076
O        9.79041829       7.05627669       3.84250339      100       0.00302836      -0.00595465      -0.13369097
O        6.02878933       8.60890213       6.66731176      101       0.08112362       0.11878219       0.09424664
O       10.39359168       9.01140131       2.89969831      102      -0.00623813      -0.04099697       0.14465046
O        5.42706961       6.65612912       7.60822162      103      -0.00755720       0.02572480      -0.15441617
O        7.29056164       5.23427794       3.40677069      104       0.11074427       0.04890594      -0.01933414
O        8.52979595      10.43151981       7.10068226      105      -0.10644662      -0.02433958      -0.04834050
O        7.79735957       5.54897473       5.59695237      106      -0.02806467      -0.06398402      -0.06925744
O        8.02270086      10.11885590       4.90880034      107       0.03825134       0.06280780       0.08781964
O        1.05957124       1.85995678       1.57928813      108      -0.10930273       0.03036937      -0.05446486
O       14.76004382      13.80589698       8.92824069      109       0.08266959       0.00751725       0.06849805
O        9.77191232       3.36013648       2.23044389      110       0.08805788      -0.06482753       0.00507478
O        6.04756955      12.30765645       8.27609991      111      -0.07756315       0.06748727      -0.00721284
O        8.57531446       1.19914192       0.20425582      112      -0.00924754       0.06424148       0.02059603
O        7.24479450      14.46731801      10.30266462      113       0.02572118      -0.06027500      -0.01328832
O       10.48079331       6.04397224       8.61782358      114      -0.03886059      -0.13037908       0.10066366
O        5.34018682       9.62314125       1.88893384      115       0.04856350       0.13276842      -0.11040191
O        6.66327892       8.26449679       3.69752091      116       0.03380031      -0.01630446      -0.02410639
O        9.15755574       7.40193095       6.81031930      117      -0.06294110       0.02665591      -0.02005445
O        3.63224125       5.45946835       9.05739041      118       0.00566107      -0.05708336       0.08133943
O       12.18775131      10.20818408       1.44874067      119      -0.00588088       0.03205705      -0.05415937
120
Lattice="10.25576316 0.0 0.0 2.988817153493279 11.253723490184768 0.0 2.577582201213336 4.411604478196907 10.508826503936158" Properties=species:S:1:pos:R:3:spacegroup_kinds:I:1:forces:R:3 spacegroup="P 1" unit_cell=conventional occupancy="_JSON {\"0\": {\"Zn\": 1}, \"1\": {\"Zn\": 1}, \"2\": {\"Zn\": 1}, \"3\": {\"Zn\": 1}, \"4\": {\"H\": 1}, \"5\": {\"H\": 1}, \"6\": {\"H\": 1}, \"7\": {\"H\": 1}, \"8\": {\"H\": 1}, \"9\": {\"H\": 1}, \"10\": {\"H\": 1}, \"11\": {\"H\": 1}, \"12\": {\"H\": 1}, \"13\": {\"H\": 1}, \"14\": {\"H\": 1}, \"15\": {\"H\": 1}, \"16\": {\"H\": 1}, \"17\": {\"H\": 1}, \"18\": {\"H\": 1}, \"19\": {\"H\": 1}, \"20\": {\"H\": 1}, \"21\": {\"H\": 1}, \"22\": {\"H\": 1}, \"23\": {\"H\": 1}, \"24\": {\"H\": 1}, \"25\": {\"H\": 1}, \"26\": {\"H\": 1}, \"27\": {\"H\": 1}, \"28\": {\"H\": 1}, \"29\": {\"H\": 1}, \"30\": {\"H\": 1}, \"31\": {\"H\": 1}, \"32\": {\"H\": 1}, \"33\": {\"H\": 1}, \"34\": {\"H\": 1}, \"35\": {\"H\": 1}, \"36\": {\"H\": 1}, \"37\": {\"H\": 1}, \"38\": {\"H\": 1}, \"39\": {\"H\": 1}, \"40\": {\"H\": 1}, \"41\": {\"H\": 1}, \"42\": {\"H\": 1}, \"43\": {\"H\": 1}, \"44\": {\"C\": 1}, \"45\": {\"C\": 1}, \"46\": {\"C\": 1}, \"47\": {\"C\": 1}, \"48\": {\"C\": 1}, \"49\": {\"C\": 1}, \"50\": {\"C\": 1}, \"51\": {\"C\": 1}, \"52\": {\"C\": 1}, \"53\": {\"C\": 1}, \"54\": {\"C\": 1}, \"55\": {\"C\": 1}, \"56\": {\"C\": 1}, \"57\": {\"C\": 1}, \"58\": {\"C\": 1}, \"59\": {\"C\": 1}, \"60\": {\"C\": 1}, \"61\": {\"C\": 1}, \"62\": {\"C\": 1}, \"63\": {\"C\": 1}, \"64\": {\"C\": 1}, \"65\": {\"C\": 1}, \"66\": {\"C\": 1}, \"67\": {\"C\": 1}, \"68\": {\"C\": 1}, \"69\": {\"C\": 1}, \"70\": {\"C\": 1}, \"71\": {\"C\": 1}, \"72\": {\"C\": 1}, \"73\": {\"C\": 1}, \"74\": {\"C\": 1}, \"75\": {\"C\": 1}, \"76\": {\"C\": 1}, \"77\": {\"C\": 1}, \"78\": {\"C\": 1}, \"79\": {\"C\": 1}, \"80\": {\"C\": 1}, \"81\": {\"C\": 1}, \"82\": {\"C\": 1}, \"83\": {\"C\": 1}, \"84\": {\"C\": 1}, \"85\": {\"C\": 1}, \"86\": {\"C\": 1}, \"87\": {\"C\": 1}, \"88\": {\"N\": 1}, \"89\": {\"N\": 1}, \"90\": {\"N\": 1}, \"91\": {\"N\": 1}, \"92\": {\"N\": 1}, \"93\": {\"N\": 1}, \"94\": {\"N\": 1}, \"95\": {\"N\": 1}, \"96\": {\"N\": 1}, \"97\": {\"N\": 1}, \"98\": {\"N\": 1}, \"99\": {\"N\": 1}, \"100\": {\"O\": 1}, \"101\": {\"O\": 1}, \"102\": {\"O\": 1}, \"103\": {\"O\": 1}, \"104\": {\"O\": 1}, \"105\": {\"O\": 1}, \"106\": {\"O\": 1}, \"107\": {\"O\": 1}, \"108\": {\"O\": 1}, \"109\": {\"O\": 1}, \"110\": {\"O\": 1}, \"111\": {\"O\": 1}, \"112\": {\"O\": 1}, \"113\": {\"O\": 1}, \"114\": {\"O\": 1}, \"115\": {\"O\": 1}, \"116\": {\"O\": 1}, \"117\": {\"O\": 1}, \"118\": {\"O\": 1}, \"119\": {\"O\": 1}}" energy=-801.2865600585938 free_energy=-801.2865600585938 stress="-0.0018363018753007054 0.0011673307744786143 0.0002168284117942676 0.0011673307744786143 -0.003668911289423704 0.00024296797346323729 0.0002168284117942676 0.00024296797346323729 -0.0036593428812921047" pbc="T T T"
Zn       8.04591943       7.02062921       3.00546282        0      -0.13936415      -0.03392566      -0.01962130
Zn       7.77499677       8.64889864       7.50070493        1       0.12057076       0.01269819       0.02059267
Zn      12.85879360       6.56370791      10.38787761        2       0.01523948      -0.02855680      -0.04897346
Zn       2.95756935       9.10804555       0.11687958        3       0.00671513       0.00259553       0.06341469
H        9.99784621       7.73947040       0.42249068        4       0.04867308      -0.00365327      -0.02899247
H        5.82171281       7.92757728      10.08104731        5      -0.02493134       0.01675530       0.03355271
H        8.92821301      11.81981743       8.78409544        6      -0.08329368       0.02486017       0.03932205
H        6.89095808       3.84730594       1.72203775        7       0.02995332      -0.02473951      -0.10563024
H       12.64713821      12.89363428       8.47872518        8      -0.04119597      -0.04173647       0.01686782
H        3.17241387       2.77262236       2.02583584        9       0.00463998       0.02427112      -0.00657039
H       11.11513052      13.09656381       7.59170010       10      -0.02372674      -0.03674887       0.03998249
H        4.70353449       2.57251061       2.91365635       11       0.03469641       0.00884704       0.00059505
H       10.98065646      10.69081909       7.08797809       12      -0.01921465      -0.04852660      -0.00434083
H        4.83634898       4.97785604       3.41818982       13      -0.05026121       0.00775049      -0.03394139
H       12.55394327      11.32848007       6.53771262       14      -0.00071658       0.01544302      -0.01750201
H        3.26666963       4.33668084       3.96851858       15      -0.03523699       0.00029469       0.01744989
H       10.93855579       8.80809986       8.81920360       16       0.04629058       0.02107849      -0.02104728
H        4.88006892       6.86134851       1.68668446       17      -0.03172326      -0.02149042       0.01463655
H        4.45852588      10.67684121       8.20965080       18      -0.03997988      -0.04447003       0.05535796
H       11.36279448       4.99120140       2.29542089       19      -0.04244758      -0.00901063      -0.03240359
H        5.71784054       4.16481990       6.62542299       20      -0.01117930      -0.02078031       0.00414133
H       10.09989069      11.50401173       3.87825309       21       0.01260625       0.01153186      -0.00113957
H        7.94523288       2.56478924       3.31482832       22      -0.00032809       0.01316683      -0.01915596
H        7.87272090      13.10321726       7.18914605       23       0.00065066      -0.00883978       0.02894087
H       11.29985432       6.06992982       5.36742686       24      -0.02752303       0.01686275       0.04736294
H        4.51946025       9.59994227       5.13626011       25      -0.00908621      -0.06001990      -0.03559442
H       12.71012412       9.81021288       3.77453281       26      -0.00166742      -0.00621027      -0.02066293
H        3.10684776       5.85785056       6.73110408       27       0.00830774       0.04431275      -0.00251815
H       10.08245908       4.10898641       4.59394830       28      -0.00985451       0.00967689       0.02470881
H        5.73521070      11.56001119       5.90955606       29       0.00932799      -0.00462246      -0.01777071
H        5.01434851      11.81878483       3.52643472       30      -0.00127807       0.00153811       0.02207803
H       10.80370400       3.85015844       6.97911860       31       0.00586939      -0.01711462      -0.04400488
H        9.80108458      11.77342558       1.73259704       32       0.01451338      -0.03510097       0.02230795
H        6.01861267       3.89503689       8.77274919       33      -0.01515726       0.02806106      -0.02230434
H        8.16969160       4.90794839       8.10631358       34      -0.00138289       0.00014094       0.02954285
H        7.64898520      10.75888121       2.39917139       35       0.00759500       0.01129011      -0.05349188
H        4.33755090       5.91224679       8.49306597       36      -0.06415285       0.04565213       0.07191554
H       11.48191759       9.75973509       2.01236648       37       0.03937674      -0.07632059      -0.05271554
H        3.98366529       4.61252373       9.44390411       38      -0.03653766      -0.11428231      -0.02536349
H       11.83402114      11.05925307       1.06037092       39       0.07521112       0.03726743       0.05667569
H        6.21325298       8.82059901       2.98706051       40       0.03319256      -0.12447110      -0.03026120
H        9.60612643       6.84700271       7.51734769       41      -0.04026419       0.12342556       0.01726344
H        7.08583958       8.91369091       4.32923492       42       0.01040038      -0.01158305       0.05239441
H        8.73266419       6.75707403       6.17268125       43       0.00827950       0.02374052      -0.01998658
C        8.94437633       7.61996440       0.18006443       44      -0.14068410      -0.02897747      -0.00456990
C        6.87519940       8.05101102      10.32478457       45       0.08433932      -0.02395912       0.04481392
C        9.63667909      11.86242822       9.60232918       46       0.02664059      -0.12058352       0.22967282
C        6.18136100       3.80644053       0.90126979       47       0.03917408       0.08151809      -0.00057075
C       11.70248984      12.39793324       8.20852827       48       0.04464735      -0.12342972      -0.31329331
C        4.11391374       3.26959953       2.30010986       49       0.03122795       0.10591128       0.14975734
C       11.93570648      11.11555910       7.42212102       50       0.03081401       0.28778192       0.03423738
C        3.87983895       4.55054423       3.08134412       51       0.08925444      -0.20725100       0.05722037
C       12.00545515       9.02763151       8.82901549       52      -0.11308259      -0.07421544       0.01217934
C        3.81391937       6.64076295       1.67500650       53       0.01051864       0.01929780      -0.00590815
C       13.93956964       9.99042260       8.54317471       54       0.05418324       0.08286655       0.07387916
C        1.87795803       5.67689649       1.96142452       55       0.04859194       0.05542304      -0.13415231
C        7.36298115       4.86135309       4.63943368       56      -0.01613130      -0.05465466       0.03407838
C        8.45572211      10.80683353       5.86453413       57       0.00253211       0.05693614       0.01501828
C        6.86284216       3.48778729       4.93851623       58       0.07286872      -0.08837660      -0.01723720
C        8.95351281      12.18210981       5.56586521       59      -0.01858559       0.01626967      -0.00776117
C        6.02023856       3.29399215       6.03905631       60       0.01128867       0.04495499       0.06233009
C        9.79821498      12.37423273       4.46535024       61      -0.03305640      -0.00185260      -0.03965734
C        7.26043280       2.39838689       4.14745073       62      -0.03225823       0.03235003       0.02848686
C        8.55846638      13.27010829       6.35761089       63       0.00548537      -0.02155894      -0.02112176
C       10.61160442       8.04158191       3.67691152       64      -0.03319341      -0.08388953       0.08900723
C        5.20646117       7.62513659       6.82822805       65       0.09954515       0.19246824      -0.08743536
C       11.86753638       7.94750202       4.48353103       66       0.00000161      -0.07951224       0.04998906
C        3.95217658       7.72040366       6.01964672       67       0.00308813       0.06519016      -0.02309267
C       12.07068701       6.83378562       5.31589494       68       0.06700078       0.03555174      -0.03600786
C        3.74789783       8.83439412       5.18915636       69      -0.01672222       0.04030861      -0.00116755
C       12.84440067       8.95070623       4.43031184       70      -0.03524202       0.00768560       0.02983035
C        2.97457539       6.71851520       6.07413704       71       0.01675271      -0.07533924      -0.00219773
C       10.69467356       2.54934383       2.49503733       72       0.06333801      -0.09425402      -0.04753554
C        5.12338188      13.12121124       8.01086618       73      -0.05345196       0.01446262      -0.04651397
C       11.14255006       2.36168495       3.91339858       74       0.04395698      -0.04684196       0.06838644
C        4.67479504      13.30732889       6.59083438       75      -0.03448392       0.06738192      -0.02466622
C       10.72311066       3.27955259       4.89229573       76       0.00704022       0.00445764      -0.02845838
C        5.09449696      12.39003811       5.61278760       77      -0.00968109      -0.02584475      -0.02192544
C        4.69912043      12.53778204       4.28424067       78      -0.03062300       0.01973797       0.05657923
C       11.11820826       3.13111619       6.21980866       79       0.02718888       0.00584057      -0.00562306
C       10.25534526       5.58130984       9.75928627       80      -0.03992289      -0.09612887       0.20234904
C        5.56348367      10.08940766       0.74493263       81      -0.00007203       0.00687622      -0.08915006
C        8.94076232       4.97341387      10.13665267       82       0.00091915       0.02811035       0.06441033
C        6.87678194      10.69544845       0.36887995       83       0.07326869       0.00228981      -0.07668589
C        9.06133277      11.53752762       0.97418235       84      -0.02445568       0.05471856      -0.01375481
C        6.75857143       4.12918375       9.53153812       85       0.00128756      -0.03353672      -0.00595233
C        7.97804041       4.68757303       9.15756174       86       0.01319796      -0.03755718      -0.02736314
C        7.84102325      10.98095288       1.34749899       87      -0.03512204       0.01038920       0.06285533
N        7.98753747       7.29273612       1.03435134       88       0.04679053       0.03553551       0.02223434
N        7.83195406       8.37730474       9.47123324       89      -0.03108376      -0.02083705      -0.03311755
N        6.79326578       7.18591819       0.35975104       90      -0.01687245      -0.01651601      -0.04477920