62
Lattice="6.62389099 0.0 0.0 3.344190524896251 14.840598586502376 0.0 3.0627193948998594 0.28897394098708884 15.00452525315878" Properties=species:S:1:pos:R:3:spacegroup_kinds:I:1:forces:R:3 spacegroup="P 1" unit_cell=conventional occupancy="_JSON {\"0\": {\"Al\": 1}, \"1\": {\"Al\": 1}, \"2\": {\"H\": 1}, \"3\": {\"H\": 1}, \"4\": {\"H\": 1}, \"5\": {\"H\": 1}, \"6\": {\"H\": 1}, \"7\": {\"H\": 1}, \"8\": {\"H\": 1}, \"9\": {\"H\": 1}, \"10\": {\"H\": 1}, \"11\": {\"H\": 1}, \"12\": {\"H\": 1}, \"13\": {\"H\": 1}, \"14\": {\"H\": 1}, \"15\": {\"H\": 1}, \"16\": {\"H\": 1}, \"17\": {\"H\": 1}, \"18\": {\"C\": 1}, \"19\": {\"C\": 1}, \"20\": {\"C\": 1}, \"21\": {\"C\": 1}, \"22\": {\"C\": 1}, \"23\": {\"C\": 1}, \"24\": {\"C\": 1}, \"25\": {\"C\": 1}, \"26\": {\"C\": 1}, \"27\": {\"C\": 1}, \"28\": {\"C\": 1}, \"29\": {\"C\": 1}, \"30\": {\"C\": 1}, \"31\": {\"C\": 1}, \"32\": {\"C\": 1}, \"33\": {\"C\": 1}, \"34\": {\"C\": 1}, \"35\": {\"C\": 1}, \"36\": {\"C\": 1}, \"37\": {\"C\": 1}, \"38\": {\"C\": 1}, \"39\": {\"C\": 1}, \"40\": {\"C\": 1}, \"41\": {\"C\": 1}, \"42\": {\"C\": 1}, \"43\": {\"C\": 1}, \"44\": {\"C\": 1}, \"45\": {\"C\": 1}, \"46\": {\"C\": 1}, \"47\": {\"C\": 1}, \"48\": {\"C\": 1}, \"49\": {\"C\": 1}, \"50\": {\"O\": 1}, \"51\": {\"O\": 1}, \"52\": {\"O\": 1}, \"53\": {\"O\": 1}, \"54\": {\"O\": 1}, \"55\": {\"O\": 1}, \"56\": {\"O\": 1}, \"57\": {\"O\": 1}, \"58\": {\"O\": 1}, \"59\": {\"O\": 1}, \"60\": {\"F\": 1}, \"61\": {\"F\": 1}}" energy=7929.78515625 free_energy=7929.78515625 stress="-5.19603967666626 -6.146573543548584 -1.9779624938964844 -6.146573543548584 0.607411801815033 7.650402545928955 -1.9779624938964844 7.650402545928955 -45.65152359008789" pbc="T T T"
Al       7.29714460       7.12852521       8.45585818        0   38325.93359375   26805.64648438  -54446.65625000
Al       3.30608154       8.01599484       8.40545894        1    1491.25500488    -107.61796570    1658.64038086
H        4.58558853       6.56461050       9.65384267        2    1970.33044434    -767.68890381     982.73565674
H        8.08595839       8.65355119       6.55041015        3     706.19128418     553.33074951   -2065.82812500
H       10.80692774       7.03516047      13.85423902        4     -55.57914734      -3.32295966      66.70582581
H        1.89646382       8.82618414       0.18348218        5       2.86805511      -0.60699058       5.10771275
H        6.24998785       6.50022985       2.99526006        6     -53.11364746     -57.31100464     -38.40909958
H        7.10444212       6.25485130       0.47393768        7      -4.99422503       0.41478294      -2.44043660
H        6.74150870       7.78727060      11.19959508        8    -110.62379456   -1013.78063965    -267.69564819
H        6.39423301       9.18612053      14.07610303        9      33.27635574      -1.49950600     -65.70300293
H        6.21840217      10.93516928       5.69845514       10    -162.66351318     286.58248901    -133.08891296
H        7.24998361      14.60343442       4.89389461       11      -1.04948044      -0.64551181      -2.99662805
H        9.94378409      11.45706335       8.55644651       12     200.41967773     291.16128540       5.57943058
H        9.24547168      13.32190224       8.80887033       13      28.15937042     -33.35781479      41.79679489
H        7.01065731       2.75400771       9.14160854       14      69.92906952     537.55212402       3.22075462
H        5.46176818       1.82709501       8.37539574       15    -212.24560547    -604.35083008      15.78331757
H        4.05924795       4.01563457       7.18955362       16     241.29005432     359.64895630      45.65578461
H        5.26198552       1.96341093       6.18870011       17       2.48705506       0.63448298       1.30933273
C        9.08808327       4.84562224       7.41609694       18     887.12072754     467.40716553    -228.91958618
C        7.19299267       6.99740249       8.96077503       19  -31987.34375000  -20098.67578125   69578.76562500
C        4.92806837      10.47300925       8.47239104       20    -138.07765198     264.76013184     330.22659302
C        4.79289530       7.79727552       4.93204460       21     785.77508545     -80.42456818    -328.96066284
C        8.10112219       8.72088542      11.56989240       22    -129.23417664    -286.82049561    -262.22570801
C        5.68641248       7.37620067       2.69051072       23     -20.19537735      15.12092400      26.47494316
C        9.76186155       7.32580074      12.64473260       24     202.99009705      61.02838898    -108.38945770
C        9.32105202       6.50088746      14.53043607       25       8.54067516       3.72183180      -1.94899774
C        3.31539500       7.75080659       2.91101818       26      -2.22543764      -5.94071388       6.65708637
C        4.42020453       6.82034437       1.05409276       27      -0.10709655      -4.65267086       7.62666416
C        5.41704534       6.50719628       3.43043882       28    -282.18203735    -149.63047791    -436.23559570
C        6.33315770       7.04095488       2.11889046       29      13.75043869      -8.85128307     -16.57450294
C        6.59627163       8.60241137      11.65364115       30     251.84690857    -287.26055908    -580.58465576
C        6.37767175       8.87349691      13.45809752       31     -21.25108337      93.93139648      71.54345703
C        7.19109249       7.37854064      14.94057522       32      -6.64479351       1.02805126     -13.88700104
C        4.69731761       8.18644279       0.33955759       33      -1.30385613       5.89670181      -3.25011444
C        6.69190784      11.56060815       6.60515671       34       6.50264072     365.19265747    -111.87129211
C        5.01487923      13.68116250       7.14653835       35      -2.99411225      -1.57615983       5.45000410
C        6.28619773      15.06296777       5.41503715       36      -0.43019426      -0.91247690      -5.71171951
C       10.35808881      12.12281227       7.53235602       37      19.00014687      31.90673256     -15.66674805
C        9.65078931      13.05723289       7.94256956       38      12.72062874     -19.91541290      -5.90701103
C        8.83852221      13.65995632       8.41844700       39     -47.47783661      34.23589325     -24.17263412
C        7.40057989       2.70852537       8.07615699       40    -219.64138794    -357.20147705     221.12994385
C        7.88599079       1.90077824       7.28591860       41    -144.92646790     351.27890015     152.17996216
C        6.41641006       1.72381828       9.73037641       42      90.75800323     676.84667969    -155.46856689
C        3.57896909       3.02214373       7.72302625       43     657.19311523     713.27075195     285.10278320
C        2.54246594       0.73208397       7.06517197       44       1.68743944      -2.55156374       0.48607290
C        3.72229272       0.11874076       6.41643282       45       0.39285311       0.45183831       6.82702446
C        4.70029974      10.76879921       6.95254693       46    -113.38611603     758.02313232     -20.68763733
C        3.96159098      14.57698498       8.41992151       47       5.00264311      -0.99051040      -4.96166897
C        7.85232211       4.40798512       7.25286971       48    -392.69644165     208.89389038    -474.32940674
C        7.20859795       1.17279285       6.63281942       49      -8.97538757     -10.12561035     -14.37758636
O        6.87602287       6.67757426       7.13098610       50   -6738.23144531   -6157.92285156   -7507.81738281
O        8.68905847       7.91709601      10.28600432       51    1925.14892578     475.32180786    1821.00366211
O       10.71017880      10.08878580       7.18704348       52    -628.90869141    -785.49884033     -57.17012787
O        6.60469351       7.00645300       6.65081635       53   -3818.29223633   -1048.32531738   -4299.75097656
O        5.17394268       9.59528895       7.71743426       54     851.80157471   -1650.18603516    -543.56317139
O        3.96610571       6.87356570       4.90521435       55     208.54164124     283.37417603    -361.78948975
O        2.91097720       5.66285664       6.71814096       56    -276.64440918     281.14181519    1167.30627441
O        7.68105202       8.52630814       9.95802194       57   -1234.53149414    -601.90332031   -1113.44152832
O        5.45645318       6.58183667       8.12479090       58   -3103.77465820    -843.31341553   -3357.71142578
O        7.70672123       8.10565502       6.14159505       59     250.01162720    1439.70031738      87.62660217
F       11.17075974       6.50792419      12.26177944       60     473.15209961    -335.36123657     991.45751953
F        1.81891092       7.29024110       3.03264874       61     195.67750549     -39.27159882    -508.20645142
62
Lattice="6.62389099 0.0 0.0 3.344190524896251 14.840598586502376 0.0 3.0627193948998594 0.28897394098708884 15.00452525315878" Properties=species:S:1:pos:R:3:spacegroup_kinds:I:1:forces:R:3 spacegroup="P 1" unit_cell=conventional occupancy="_JSON {\"0\": {\"Al\": 1}, \"1\": {\"Al\": 1}, \"2\": {\"H\": 1}, \"3\": {\"H\": 1}, \"4\": {\"H\": 1}, \"5\": {\"H\": 1}, \"6\": {\"H\": 1}, \"7\": {\"H\": 1}, \"8\": {\"H\": 1}, \"9\": {\"H\": 1}, \"10\": {\"H\": 1}, \"11\": {\"H\": 1}, \"12\": {\"H\": 1}, \"13\": {\"H\": 1}, \"14\": {\"H\": 1}, \"15\": {\"H\": 1}, \"16\": {\"H\": 1}, \"17\": {\"H\": 1}, \"18\": {\"C\": 1}, \"19\": {\"C\": 1}, \"20\": {\"C\": 1}, \"21\": {\"C\": 1}, \"22\": {\"C\": 1}, \"23\": {\"C\": 1}, \"24\": {\"C\": 1}, \"25\": {\"C\": 1}, \"26\": {\"C\": 1}, \"27\": {\"C\": 1}, \"28\": {\"C\": 1}, \"29\": {\"C\": 1}, \"30\": {\"C\": 1}, \"31\": {\"C\": 1}, \"32\": {\"C\": 1}, \"33\": {\"C\": 1}, \"34\": {\"C\": 1}, \"35\": {\"C\": 1}, \"36\": {\"C\": 1}, \"37\": {\"C\": 1}, \"38\": {\"C\": 1}, \"39\": {\"C\": 1}, \"40\": {\"C\": 1}, \"41\": {\"C\": 1}, \"42\": {\"C\": 1}, \"43\": {\"C\": 1}, \"44\": {\"C\": 1}, \"45\": {\"C\": 1}, \"46\": {\"C\": 1}, \"47\": {\"C\": 1}, \"48\": {\"C\": 1}, \"49\": {\"C\": 1}, \"50\": {\"O\": 1}, \"51\": {\"O\": 1}, \"52\": {\"O\": 1}, \"53\": {\"O\": 1}, \"54\": {\"O\": 1}, \"55\": {\"O\": 1}, \"56\": {\"O\": 1}, \"57\": {\"O\": 1}, \"58\": {\"O\": 1}, \"59\": {\"O\": 1}, \"60\": {\"F\": 1}, \"61\": {\"F\": 1}}" energy=-206.42132568359375 free_energy=-206.42132568359375 stress="-0.04588185250759125 -0.012371223419904709 -0.02646808698773384 -0.012371223419904709 -0.03117915615439415 -0.005235451273620129 -0.02646808698773384 -0.005235451273620129 -0.1244480311870575" pbc="T T T"
Al       8.29713846       6.24927886       9.45585788        0      -1.47764575      -1.19160640       2.18445230
Al       2.30942137       9.01599484       9.40545805        1      27.75875854       2.26656961       3.48470879
H        5.58031323       5.56461050      10.65383980        2      -2.30336285      -1.65024948       1.77620554
H        7.08595839       7.65355119       5.55041015        3      -0.44434226       0.90607333      -1.48925841
H       11.80692738       8.03516035      14.85423902        4       1.68926239       0.81532127      -0.86680198
H        0.89646382       9.82618116      -0.81651782        5      -0.44305485       0.18591842       0.16949186
H        7.24932559       7.50022985       3.69465476        6      -0.76298267      -2.03646755      -1.52363825
H        6.10819942       5.25485130      -0.41811628        7      -0.69573516       0.79537416      -1.84121323
H        6.37857333       8.78727060      10.19977753        8      -1.43867958      -0.30806541       1.92501426
H        5.39427396      10.18611951      13.07610446        9       3.34065533      38.48179245      58.40517044
H        5.21872677      11.93506479       6.69845514       10      -4.13846064       8.81901550      10.45991135
H        6.56877572      13.60343442       4.00625944       11       0.14726451       0.20476192      -0.17346500
H       10.94378409      12.45706335       9.55644651       12       0.77596122       2.99851131      -3.26700211
H       10.23568710      14.32190224       9.80887033       13      -0.26165009      -0.95252573      -0.84187722
H        8.01065731       1.75400801       8.14160854       14     -33.89476776     -35.32398987      41.03388977
H        6.46176818       0.82709501       7.37539603       15       6.45109177      -0.76316881       5.11941624
H        5.05865428       3.01563457       8.18955356       16      -1.12228227       0.60338134       0.02908736
H        4.26198552       0.96341099       5.19655523       17      -0.45773065      -1.04035521       0.49175477
C        8.08808327       5.84562224       6.42512597       18      -6.47046947      -8.57530308       6.46914577
C        6.19301300       5.99740386       9.95243407       19       3.87786150      -0.12121192      -1.10469854
C        4.02253386       9.47300925       9.47239104       20      -0.93103790      -1.26200318       1.25481462
C        3.79297749       8.79727552       3.93204460       21       4.89966726      -2.31408548      -2.82653332
C        7.10112225       7.72088781      12.56989240       22      -3.73984289      -1.85998881       0.08114132
C        5.44276885       8.37620067       1.70220342       23      19.73339462      16.75389862      41.26499939
C        8.76186155       6.33725633      13.08583871       24       4.58595848       3.78637624       2.99476194
C       10.32105202       7.50088746      13.53099165       25      -2.99677038      -3.67280436      -2.55811453
C        4.31539500       6.75080659       1.91101818       26       5.46546364     -11.14842796      11.59114647
C        3.42020453       7.81732957       0.09657091       27      -7.05375624       5.71532345      -9.64232731
C        6.41704176       5.50719634       2.44101292       28      -0.50967193       0.82758290      -0.18036143
C        5.33356546       8.04095477       3.11889046       29      -5.52610159       2.49410772       1.12734032
C        5.59627163       7.60241137      12.65364115       30       3.33835363       1.31091380       0.24464834
C        5.37767813       9.87349691      12.61760253       31      -2.86926413     -38.69483185     -59.27493286
C        8.19109249       8.37854064      15.94057522       32     -15.70575142     -12.15962029     -40.76039886
C        3.69731761       7.18644279       1.03721530       33      -3.71845531      -1.37540066       1.00517118
C        5.69207485      10.56060916       7.59783524       34       3.70075417      -4.00447416       9.94831276
C        4.01487923      12.68150320       8.14653745       35      -9.45699787      -3.25084853      -1.26883984
C        7.28619773      14.06296992       6.41466468       36      -1.69486129       1.66408420      -2.44919968
C        9.35808881      13.12281227       8.53096347       37      12.54341698      -6.09589767      -1.09452486
C        8.65078931      14.05696794       8.94256956       38      -4.56647301       4.58317232       0.52072704
C        7.83852221      12.65995632       7.41844802       39      -3.04111934      -0.80751532      -2.25756955
C        6.40057989       1.70852543       9.07615579       40       3.08093786       0.66833711       2.23775291
C        8.88599073       1.97098838       8.28591860       41      44.42887497      -9.04825974      29.14838409
C        7.41641006       1.26323516      10.73021214       42      -3.64893317       1.35347593      -6.15165186
C        4.57896909       4.01324636       8.72300658       43       1.54532123       0.63697708      -0.43823728
C        1.54246594      -0.26791603       8.03671248       44      19.25256920      38.75611877      96.36550140
C        4.72229272      -0.88125924       7.41643276       45      -5.07823944       3.24127674       0.57944298
C        5.70029974      11.76879921       5.96285180       46      25.97798538      24.67098618     -15.24563217
C        4.96159057      14.56944155       7.41992193       47      -7.89085674     -27.37566757     -90.98385620
C        6.85234470       3.40858641       8.25286971       48      -1.50925779      -2.18697524       1.11456013
C        8.20858430       2.17278212       7.63281942       49     -17.55954742      29.86177826     -69.95591736
O        7.87602287       7.61568032       6.13098610       50       1.03615725       4.18631792      -1.85275698
O        7.68909167       8.91709601       9.28600432       51     -23.28038216       1.72312307      -2.23860598
O       11.71017880      11.08199653       6.18704444       52     -22.80236435     -25.13008118      -0.56467026
O        5.60534326       8.00645294       7.64799425       53      -2.51102185       1.05346274      -1.12424850
O        6.17394268      10.59527072       8.71620963       54      -1.15489542       1.05827498      -3.72781682
O        2.96610571       5.87356570       3.90521495       55      -0.04057328       0.01778188      -0.74388260
O        1.91178949       6.66285664       5.71815748       56       4.80523109       1.10024571      -4.60195446
O        7.22377144       7.77943756       9.04045832       57       0.52679211      -1.04119062      -0.47668213
O        6.45645318       5.58183667       7.12479090       58       5.95799541      -0.02642906      -1.97951198
O        6.70672153       7.72359739       7.14159505       59      -3.95563316      -0.66757202       2.97071552
F       10.17075974       5.50792479      11.26177944       60      -1.12814760       0.17406350      -0.86072344
F        0.81891092       8.29024110       4.03264642       61       1.36138844       2.37062287       0.36925426
62
Lattice="6.62389099 0.0 0.0 3.344190524896251 14.840598586502376 0.0 3.0627193948998594 0.28897394098708884 15.00452525315878" Properties=species:S:1:pos:R:3:spacegroup_kinds:I:1:forces:R:3 spacegroup="P 1" unit_cell=conventional occupancy="_JSON {\"0\": {\"Al\": 1}, \"1\": {\"Al\": 1}, \"2\": {\"H\": 1}, \"3\": {\"H\": 1}, \"4\": {\"H\": 1}, \"5\": {\"H\": 1}, \"6\": {\"H\": 1}, \"7\": {\"H\": 1}, \"8\": {\"H\": 1}, \"9\": {\"H\": 1}, \"10\": {\"H\": 1}, \"11\": {\"H\": 1}, \"12\": {\"H\": 1}, \"13\": {\"H\": 1}, \"14\": {\"H\": 1}, \"15\": {\"H\": 1}, \"16\": {\"H\": 1}, \"17\": {\"H\": 1}, \"18\": {\"C\": 1}, \"19\": {\"C\": 1}, \"20\": {\"C\": 1}, \"21\": {\"C\": 1}, \"22\": {\"C\": 1}, \"23\": {\"C\": 1}, \"24\": {\"C\": 1}, \"25\": {\"C\": 1}, \"26\": {\"C\": 1}, \"27\": {\"C\": 1}, \"28\": {\"C\": 1}, \"29\": {\"C\": 1}, \"30\": {\"C\": 1}, \"31\": {\"C\": 1}, \"32\": {\"C\": 1}, \"33\": {\"C\": 1}, \"34\": {\"C\": 1}, \"35\": {\"C\": 1}, \"36\": {\"C\": 1}, \"37\": {\"C\": 1}, \"38\": {\"C\": 1}, \"39\": {\"C\": 1}, \"40\": {\"C\": 1}, \"41\": {\"C\": 1}, \"42\": {\"C\": 1}, \"43\": {\"C\": 1}, \"44\": {\"C\": 1}, \"45\": {\"C\": 1}, \"46\": {\"C\": 1}, \"47\": {\"C\": 1}, \"48\": {\"C\": 1}, \"49\": {\"C\": 1}, \"50\": {\"O\": 1}, \"51\": {\"O\": 1}, \"52\": {\"O\": 1}, \"53\": {\"O\": 1}, \"54\": {\"O\": 1}, \"55\": {\"O\": 1}, \"56\": {\"O\": 1}, \"57\": {\"O\": 1}, \"58\": {\"O\": 1}, \"59\": {\"O\": 1}, \"60\": {\"F\": 1}, \"61\": {\"F\": 1}}" energy=-170.1644744873047 free_energy=-170.1644744873047 stress="0.0911635234951973 -0.06234656274318695 -0.08520910143852234 -0.06234656274318695 0.06059129536151886 -0.0512375645339489 -0.08520910143852234 -0.0512375645339489 0.022626478224992752" pbc="T T T"
Al       7.29713846       7.21129544       8.45585818        0      -6.99026203      -4.05902481       3.82225943
Al       1.30942167       8.01599484       8.40545805        1     -16.50722313      -4.10721302     -16.66624451
H        4.58043345       4.56461056      11.65383980        2      -0.16176426      -0.74990267      -0.16124293
H        8.08595839       6.65355215       6.55040943        3      -1.30112815      -2.49430966      -4.63597059
H       10.80692768       9.03514730      15.85423902        4       0.13087150      -0.02871063      -0.58802032
H       -0.10353618       8.98403268      -1.81651782        5      -1.30255556      -0.15962866       1.28985786
H        8.24010719       6.50972285       4.69465476        6       0.25778112       1.04474342      -1.02647746
H        7.10819942       6.25485130      -1.41100879        7       1.45620227       0.89696878      -1.22314274
H        7.37856672       9.78726815      11.19918333        8      -0.08380409       0.50887728      -0.07658502
H        4.39427503       9.20215763      14.07609790        9      -0.41695273       0.27927712      -0.07320343
H        4.21872677      12.93506479       7.69844942       10      11.72162819      -6.63580847      15.53051853
H        5.56877572      12.60343442       5.00625932       11      -1.10778379       6.45757532       2.60403204
H       11.94378409      13.45706335      10.55291273       12      -0.51347643       0.39928091      -1.82338929
H       11.23568710      15.32190224      10.80887033       13      -0.17132746       0.66150510      -4.83595085
H        9.01065731       2.75400801       7.14160854       14       7.03980303      12.81654263       7.85288477
H        7.46176448       0.44984118       6.37539603       15    -816.75390625   -1062.04626465    -404.19747925
H        4.05865428       4.01562986       9.18955356       16      -5.12160873      -4.84282446      -4.47162724
H        3.26198552       0.56863122       4.21239391       17       2.73287129      -9.26391220      -3.66719127
C        7.09609866       4.84562224       7.42512597       18       7.02381325     -13.71808624      -7.58737421
C        7.19301210       6.53865350      10.95243407       19       1.39413929       1.18016732      -2.31416678
C        3.02253589       8.58656367       8.47295972       20      -2.27985239      -0.91191673       0.53728288
C        2.79297749       9.79722372       2.93204460       21       0.16734645      -0.13445958      -0.03933295
C        7.90752166       8.72088751      13.52513861       22       2.62355685      -1.49881208       0.75255233
C        4.44276885       9.33469772       0.70220342       23      20.13901520      17.85639572      51.23076630
C        7.76186167       5.40459754      14.08583865       24      -0.78897130       5.84882212      -0.34429914
C       11.32105202       7.36722590      12.53111771       25      -0.98429710      -0.39182764       1.80395019
C        3.31539500       5.75531246       2.91098641       26      -9.57245922       7.51172447       0.02908805
C        4.42020453       6.81732957      -0.90342909       27      -2.22283030      -3.23033381       0.05121773
C        7.41704176       4.50767496       1.44101292       28       0.20466270       0.43520135       0.09902821
C        6.32905106       9.04095477       4.11889046       29      -0.97141194       2.74235368      11.96836281
C        6.59627157       8.60241137      13.65364115       30      -0.37733790      -1.52482033       1.00626850
C        4.38376406      10.87349673      12.37620482       31      -0.31313041      -1.03217876       0.07096823
C        7.19116234       9.37300682      14.94057522       32     -20.15266609     -18.55503082     -52.81737518
C        2.69731761       6.19005949       0.03721530       33       2.62727761       1.01928163      -1.23056364
C        6.69207485      11.56060916       7.82349345       34      -0.82468909       6.12096214       3.34729457
C        3.01545638      11.83648207       8.62452117       35      -1.86129165       6.93811035      -4.93769073
C        8.28619773      15.06296992       7.41427278       36      -1.98569798      -4.08314323     -20.32330322
C        8.35808881      14.12281227       9.53096347       37      -8.73136234      -3.44744396     -14.02436352
C        7.65086489      15.03065470       9.91491247       38       0.78944993       0.52734452       4.76142311
C        6.83852221      13.65995626       8.41835032       39      11.86999130       0.24851394       4.01993084
C        5.40057989       0.71185148       8.07617677       40      57.62546158      17.60646439       3.16679096
C        9.88599073       0.97098856       9.28591860       41      -2.08731675       2.76482391       6.13766098
C        6.41641018       2.24442501      11.49462848       42       1.19648755      -0.93620527      -4.15292740
C        3.57904562       3.01324636       7.72300676       43     -24.85129356      -4.37840748      -7.05942535
C        0.54246594      -1.26791603       7.03671248       44      17.78169441      50.52426147     -17.57346153
C        5.72183245      -1.88125924       8.41643276       45      -7.63064814     -10.75368690       7.01938915
C        6.70029974      12.76879921       4.96667120       46       1.65065360      -3.42144251       0.87606943
C        4.30073742      15.56727653       6.41992193       47     763.49462891    1053.86059570     451.52603149
C        5.85237438       2.40858641       7.25286971       48      21.87609100     -18.03729248     -19.28697205
C        7.20858430       3.17277681       6.63281942       49     -17.86708450      35.18973160       2.18689775
O        6.87747382       8.61568032       5.13098610       50       2.26079559      -2.84066129      -1.18239689
O        8.68909161       7.91709601      10.28186258       51      -0.30433828       0.27211207       5.19814110
O       12.71017880      10.08199653       5.18704444       52      -3.36701894       6.09847212      -2.16077232
O        6.60534326       7.00645294       6.64799425       53       7.94058418       0.51866525       7.35770512
O        7.17394268      11.59524556       9.71616510       54       3.09605932      -2.49573588      -1.63065946
O        1.96610571       6.87356570       2.90521495       55       8.61834717      -7.84635878       1.20889950
O        2.91178949       5.66288317       6.71815748       56     -14.53582382     -34.87668610      -1.28524303
O        8.21911113       8.77794143       9.42270652       57       6.17069292       9.88388443       9.18506527
O        7.45645318       4.58724991       6.12479090       58       0.08160758     -17.02344322       5.40140820
O        5.74208627       8.72359739       8.14159505       59       8.82265663      -4.48126173       0.23755261
F        9.17086131       6.50792437      10.26939733       60       1.03998530      -1.15622413       0.63647836
F       -0.18028835       9.29024110       3.03265053       61       0.30714571       0.95037001      -9.51885700
