72
Lattice="6.69828726 0.0 0.0 0.00022257341112709385 14.698613518314843 0.0 -0.00011357602346840509 -1.2664889993635036 16.627712439032443" Properties=species:S:1:pos:R:3:spacegroup_kinds:I:1:forces:R:3 spacegroup="P 1" unit_cell=conventional occupancy="_JSON {\"0\": {\"Al\": 1}, \"1\": {\"Al\": 1}, \"2\": {\"Al\": 1}, \"3\": {\"Al\": 1}, \"4\": {\"H\": 1}, \"5\": {\"H\": 1}, \"6\": {\"H\": 1}, \"7\": {\"H\": 1}, \"8\": {\"H\": 1}, \"9\": {\"H\": 1}, \"10\": {\"H\": 1}, \"11\": {\"H\": 1}, \"12\": {\"H\": 1}, \"13\": {\"H\": 1}, \"14\": {\"H\": 1}, \"15\": {\"H\": 1}, \"16\": {\"C\": 1}, \"17\": {\"C\": 1}, \"18\": {\"C\": 1}, \"19\": {\"C\": 1}, \"20\": {\"C\": 1}, \"21\": {\"C\": 1}, \"22\": {\"C\": 1}, \"23\": {\"C\": 1}, \"24\": {\"C\": 1}, \"25\": {\"C\": 1}, \"26\": {\"C\": 1}, \"27\": {\"C\": 1}, \"28\": {\"C\": 1}, \"29\": {\"C\": 1}, \"30\": {\"C\": 1}, \"31\": {\"C\": 1}, \"32\": {\"C\": 1}, \"33\": {\"C\": 1}, \"34\": {\"C\": 1}, \"35\": {\"C\": 1}, \"36\": {\"C\": 1}, \"37\": {\"C\": 1}, \"38\": {\"C\": 1}, \"39\": {\"C\": 1}, \"40\": {\"C\": 1}, \"41\": {\"C\": 1}, \"42\": {\"C\": 1}, \"43\": {\"C\": 1}, \"44\": {\"C\": 1}, \"45\": {\"C\": 1}, \"46\": {\"C\": 1}, \"47\": {\"C\": 1}, \"48\": {\"Cl\": 1}, \"49\": {\"Cl\": 1}, \"50\": {\"Cl\": 1}, \"51\": {\"Cl\": 1}, \"52\": {\"O\": 1}, \"53\": {\"O\": 1}, \"54\": {\"O\": 1}, \"55\": {\"O\": 1}, \"56\": {\"O\": 1}, \"57\": {\"O\": 1}, \"58\": {\"O\": 1}, \"59\": {\"O\": 1}, \"60\": {\"O\": 1}, \"61\": {\"O\": 1}, \"62\": {\"O\": 1}, \"63\": {\"O\": 1}, \"64\": {\"O\": 1}, \"65\": {\"O\": 1}, \"66\": {\"O\": 1}, \"67\": {\"O\": 1}, \"68\": {\"O\": 1}, \"69\": {\"O\": 1}, \"70\": {\"O\": 1}, \"71\": {\"O\": 1}}" energy=-509.021484375 free_energy=-509.021484375 stress="-0.006994860712438822 0.0005170851363800466 0.0009748461307026446 0.0005170851363800466 -0.002308144234120846 0.0009971578838303685 0.0009748461307026446 0.0009971578838303685 -0.0031330129131674767" pbc="T T T"
Al       5.87828350       6.70305894       8.28070632        0      -0.49732804       0.18596341      -0.02911302
Al       2.52157940       6.67270381       8.32691057        1      -0.47030875      -0.16815060      -0.35548103
Al       2.55846213      -0.01708956      -0.00435232        2       0.20728171       0.09698335       0.17495754
Al       5.93137696      13.39033847      16.59924845        3      -0.63507605      -0.16330940      -0.20003468
H        2.51104626       8.06723567      12.37869216        4       0.38439110      -0.45352209      -0.08830450
H        5.83632138       5.32685882       4.20893284        5       0.60292512       0.51710749       0.02647346
H        4.59962312      11.62618767      12.78156608        6      -0.48998928      -0.03815287       0.33539808
H        1.25209383       1.75480939       3.83415005        7      -0.54654419      -0.01842811      -0.53847396
H        5.94672474      11.40560272      10.07682872        8       0.62676108       0.79068887      -1.49862289
H        2.59366536       1.96872160       6.54813553        9       0.17829226      -0.01916800       0.19180329
H        5.69362418      12.81805515      12.08781997       10       0.28909606       0.12286960       0.04565556
H        2.39497970       0.60645580       4.48583042       11       0.34283125      -1.35249400       0.15961325
H        4.17332624       8.32111770       8.88505539       12       0.05536623      -0.11820358      -0.15450117
H        0.82617594       5.05106197       7.68329337       13       0.04362130       0.17202784       0.16229476
H        4.19644734      11.68304191      16.26044640       14       0.00640335       0.09390347       0.06391597
H        0.84577825       1.68913563       0.30787402       15       0.05770905      -0.00228870      -0.04200868
C        4.21703206       4.91139725       9.93704577       16       1.44748139       0.52304775      -0.24449168
C        0.84506117       8.46089001       6.63468599       17       2.20095515       0.10112309       0.15566850
C        4.20517009       5.27857766       6.37515459       18      -1.33742332      -1.23103821      -2.22754359
C        0.86103131       8.09576118      10.24462335       19      -2.22662997       0.81785977       0.85834897
C        6.62569224      10.02951133      11.60007526       20      -0.67657483       0.28467095      -0.19646433
C        3.25397594       3.34665573       4.97196241       21       1.04980540       0.65793824       0.01924032
C        0.81171255       8.98993788      11.44552058       22       0.53102642      -0.43109864      -0.36212969
C        4.18929345       4.38814561       5.14573224       23      -1.00958240      -0.48682979       0.58678794
C        1.77191073       8.84160548      12.45355707       24      -0.16096300       0.50550920       0.48158595
C        5.12613168       4.53149447       4.13194851       25       0.05051138      -0.52997631      -0.67950797
C        1.82771076       9.71167741      13.55024916       26      -0.57940662       0.28142548      -0.28323105
C        5.20284600       3.66082774       3.02022665       27      -0.94371527      -0.13029927       0.87415463
C        0.88882429      10.77894992      13.70939774       28       0.32169044      -0.14003102       0.05549091
C        4.28045109       2.59339618       2.85886368       29      -0.50283349       0.24054648       0.52260137
C        6.61603342      10.87272602      12.70484928       30       1.48870707      -0.23717026       1.08136010
C        3.29539836       2.49998566       3.86429333       31       1.00973201       0.55429578      -0.71949172
C        5.52213225      11.74836103      12.22966665       32      -0.52835882       0.18188402      -0.66343999
C        2.18604243       1.63542599       4.35824089       33      -0.51887399       0.66689187       0.26741168
C        5.58470474      10.87389714      10.90935630       34      -1.33233643      -0.65758443       0.89601648
C        2.23432541       2.50605860       5.66271639       35      -0.95282865      -0.02516761       0.57318735
C        0.90906381      12.07967665       2.83408620       36      -0.01542825      -0.24348824       0.21228802
C        4.22457045       1.31769008      13.73750772       37       0.14646268      -1.07064605       0.94122314
C        0.91509745      11.23200550       3.71943164       38       0.02741689      -0.11506543       0.15208128
C        4.23083811       2.14412289      12.84928352       39       0.10647274       0.89025235      -0.91753972
C        0.92130318      10.29558686       4.69617326       40      -0.02479966       0.35669923      -0.35742468
C        4.26913039       3.07817029      11.87550518       41      -0.21003158       0.89521492      -0.88058972
C        0.90166024       9.45130161       5.57982296       42      -0.01414388      -0.26677054       0.26962620
C        4.22966869       3.94627863      10.98945117       43       0.25830916      -1.39524305       1.23408771
C        4.27820495       1.59578196       1.75455845       44      -1.98360324       0.63329238       0.83380854
C        0.91120948      11.78623110      14.81450787       45       0.87688428      -0.15905923       0.08463630
C        4.23475332       0.33801675      14.80843737       46       0.80170274       0.03235181       0.57402056
C        0.89295742      13.03420450       1.75993818       47       2.38272285       0.12338100      -0.05614264
Cl       3.03722316       9.40263649      14.72230006       48       0.29821652      -0.07415169       0.28131828
Cl       6.38465173       3.97043378       1.85198688       49       0.71225458       0.25835645      -0.59459448
Cl       4.03449627      10.14030187      10.44629708       50       0.17995524       0.10020679       0.19484369
Cl       0.68265121       3.24750841       6.14892971       51       0.27268815      -0.21911387      -0.32081237
O        3.07623062       5.55384621       6.86279241       52      -0.80415583       0.15987349       0.66006416
O        6.42524898       7.81841189       9.72342832       53      -0.16586116       0.08185619      -0.10504282
O        5.37350039       5.29890274       9.49189683       54      -1.10350990      -0.42711413       0.40809521
O        1.99611277       8.08070245       7.10858852       55      -1.00977278       0.37519890      -0.53670508
O        5.31809849       5.66518012       6.74013011       56       2.06710577       0.90599996       1.18668199
O        1.96282547       7.70734249       9.84810126       57       2.03647089      -0.71451759      -0.70321983
O        6.41864486       8.08775314       7.01849955       58      -1.26719189      -0.36651668       0.30225408
O        3.08367332       5.30283628       9.55712726       59      -0.71431315       0.14939952      -0.24900793
O        4.15949872       7.47482096       8.40106057       60       0.76695716       0.21776249       0.13444895
O        0.81111004       5.89734426       8.16876533       61       0.80667937      -0.20527785      -0.04166112
O        5.37465487      -0.04688156      15.25469910       62      -0.27488703       0.39597672      -0.70101184
O        2.07457961      13.42003965       1.35738766       63      -1.47973418      -0.41903287       0.49353832
O        3.11752445       1.20667709       1.36975203       64       0.03623488       0.05307645      -0.09687889
O        6.47346057      12.17157918      15.22232119       65      -0.34601238       0.18650290       0.13624451
O        3.11778379      -0.01345038      15.27318538       66      -0.77750736      -0.02268904      -0.13851926
O        6.48190861      13.38938369       1.31414451       67      -1.14320350       0.33374530      -0.38043794
O        2.05183929      12.18450073      15.26574314       68      -0.97661334      -0.36295795      -0.59524012
O        5.36621744       1.19286516       1.33064015       69       1.91487408      -0.79065514      -0.77675217
O        4.21782255      12.60179518      16.57148057       70       0.69519389      -0.05181591       0.04720674
O        0.86869774       0.77036575       0.00135293       71       0.43835318       0.16314417       0.05598533
72
Lattice="6.69828726 0.0 0.0 0.00022257341112709385 14.698613518314843 0.0 -0.00011357602346840509 -1.2664889993635036 16.627712439032443" Properties=species:S:1:pos:R:3:spacegroup_kinds:I:1:forces:R:3 spacegroup="P 1" unit_cell=conventional occupancy="_JSON {\"0\": {\"Al\": 1}, \"1\": {\"Al\": 1}, \"2\": {\"Al\": 1}, \"3\": {\"Al\": 1}, \"4\": {\"H\": 1}, \"5\": {\"H\": 1}, \"6\": {\"H\": 1}, \"7\": {\"H\": 1}, \"8\": {\"H\": 1}, \"9\": {\"H\": 1}, \"10\": {\"H\": 1}, \"11\": {\"H\": 1}, \"12\": {\"H\": 1}, \"13\": {\"H\": 1}, \"14\": {\"H\": 1}, \"15\": {\"H\": 1}, \"16\": {\"C\": 1}, \"17\": {\"C\": 1}, \"18\": {\"C\": 1}, \"19\": {\"C\": 1}, \"20\": {\"C\": 1}, \"21\": {\"C\": 1}, \"22\": {\"C\": 1}, \"23\": {\"C\": 1}, \"24\": {\"C\": 1}, \"25\": {\"C\": 1}, \"26\": {\"C\": 1}, \"27\": {\"C\": 1}, \"28\": {\"C\": 1}, \"29\": {\"C\": 1}, \"30\": {\"C\": 1}, \"31\": {\"C\": 1}, \"32\": {\"C\": 1}, \"33\": {\"C\": 1}, \"34\": {\"C\": 1}, \"35\": {\"C\": 1}, \"36\": {\"C\": 1}, \"37\": {\"C\": 1}, \"38\": {\"C\": 1}, \"39\": {\"C\": 1}, \"40\": {\"C\": 1}, \"41\": {\"C\": 1}, \"42\": {\"C\": 1}, \"43\": {\"C\": 1}, \"44\": {\"C\": 1}, \"45\": {\"C\": 1}, \"46\": {\"C\": 1}, \"47\": {\"C\": 1}, \"48\": {\"Cl\": 1}, \"49\": {\"Cl\": 1}, \"50\": {\"Cl\": 1}, \"51\": {\"Cl\": 1}, \"52\": {\"O\": 1}, \"53\": {\"O\": 1}, \"54\": {\"O\": 1}, \"55\": {\"O\": 1}, \"56\": {\"O\": 1}, \"57\": {\"O\": 1}, \"58\": {\"O\": 1}, \"59\": {\"O\": 1}, \"60\": {\"O\": 1}, \"61\": {\"O\": 1}, \"62\": {\"O\": 1}, \"63\": {\"O\": 1}, \"64\": {\"O\": 1}, \"65\": {\"O\": 1}, \"66\": {\"O\": 1}, \"67\": {\"O\": 1}, \"68\": {\"O\": 1}, \"69\": {\"O\": 1}, \"70\": {\"O\": 1}, \"71\": {\"O\": 1}}" energy=-507.34771728515625 free_energy=-507.34771728515625 stress="-0.016467636451125145 -0.00034835896803997457 0.00204855646006763 -0.00034835896803997457 -0.00599110359326005 0.0009217018960043788 0.00204855646006763 0.0009217018960043788 -0.008446898311376572" pbc="T T T"
Al       5.87799481       6.67378978       8.29245927        0      -0.59261644       0.39775756      -0.33708459
Al       2.54002947       6.64275699       8.34182831        1      -1.48198438      -0.48090342      -0.69276047
Al       2.55666826      -0.04633120      -0.02171179        2      -0.29561940       0.07106418       0.45515156
Al       5.90717213      13.39391808      16.57911831        3      -0.71830070      -0.74021411      -0.00033968
H        2.49294117       8.09149628      12.35053488        4       1.87960219      -2.06967115      -0.27498710
H        5.80828633       5.29994539       4.23141015        5       1.82286549       1.82734191       0.12442450
H        4.60579755      11.59851760      12.75354358        6      -0.84446859      -0.10840668       0.53540146
H        1.28196602       1.78021870       3.84386851        7      -1.32985163      -0.04128817      -0.97523201
H        5.93759274      11.37621813      10.10642090        8       1.26697516       1.62977052      -2.74306202
H        2.58986649       1.94522565       6.51854220        9       0.30423635       0.03618789       0.17943308
H        5.66689717      12.78807994      12.06794880       10       0.43726763       0.25306255       0.07566002
H        2.41686107       0.63072668       4.46011199       11       0.25028342      -1.32725573       0.11594281
H        4.14430208       8.29130038       8.85555917       12       0.04979441      -0.06035607      -0.16094229
H        0.79738399       5.02124382       7.65356124       13       0.05028142       0.32759073       0.23551251
H        4.16704042      11.65317462      16.23726156       14      -0.01213401       0.04033643       0.05154016
H        0.81592628       1.65916828       0.28193129       15       0.07607582       0.25140578       0.04140855
C        4.24083880       4.88297718       9.90944187       16       0.41370267       0.85551840      -0.25238711
C        0.84147357       8.43093676       6.60818486       17       1.53099346      -0.07682365       1.22939944
C        4.22884843       5.24871253       6.35754012       18      -2.70875955      -0.63052648      -0.66588068
C        0.83514935       8.11399803      10.21584171       19      -0.25406295       0.31787950       1.32921314
C        6.65349709      10.04474353      11.60627546       20      -1.16353989      -1.66847134      -2.33143282
C        3.24326203       3.31798132       4.94427762       21       2.54685187       2.04524136       0.23018393
C        0.79709497       8.98298880      11.41572711       22       1.34515071      -0.18419534       0.34822896
C        4.21150322       4.35882886       5.16315187       23      -1.70788598      -1.05396438      -0.01835147
C        1.77457243       8.81272933      12.42423913       24      -2.22606993       2.21064281       0.22249563
C        5.13187929       4.53093706       4.15616050       25      -0.71275049      -2.56430387      -1.48629212
C        1.80651386       9.68170314      13.52070280       26      -0.84902298       0.92586958      -0.11072131
C        5.22978826       3.63103384       3.04043680       27      -2.24641442      -0.06406826       1.41593504
C        0.86750943      10.77105117      13.68006846       28       0.73899889      -0.41206414       0.09526819
C        4.26322003       2.59303002       2.82949820       29      -0.29846871       0.51277685       0.97847056
C        6.58619793      10.84389061      12.67532403       30       2.76864243       0.96490312       3.72378588
C        3.26774612       2.47709133       3.83442588       31       2.84732437       2.18187404      -1.45359385
C        5.52431491      11.71894417      12.21561077       32      -1.05589533       0.74753630      -0.80606419
C        2.20911998       1.66341523       4.33441901       33      -1.51370955      -1.26405752       0.81647265
C        5.61065424      10.85138860      10.91506782       34      -2.09249139      -0.90469056       1.19733560
C        2.26148740       2.50429855       5.63313180       35      -1.56464767      -0.60632497       1.32490015
C        0.88661800      12.06536705       2.80904358       36       0.15044428      -0.91463649       0.80369687
C        4.22208766       1.29384751      13.70812550       37       0.19323708      -1.82616019       1.63713193
C        0.94041473      11.20869645       3.68985194       38      -0.06280947       0.10874397      -0.05768377
C        4.20714466       2.11413071      12.82093386       39       0.14427988       0.93699151      -0.87378615
C        0.95065835      10.26791946       4.66732958       40      -0.04104187       1.46343529      -1.46634138
C        4.26935380       3.05273944      11.87656083       41      -0.42018694       3.31485581      -3.42762089
C        0.88467361       9.44972423       5.55264623       42       0.06128976      -1.99545789       1.81068230
C        4.20401769       3.95010467      10.96378077       43       0.63413954      -3.96014762       3.76644635
C        4.25970009       1.60498868       1.72462374       44      -2.38974261       0.21379085       1.16750824
C        0.88552548      11.80595213      14.78483066       45       3.40530682      -2.03252649      -0.78104544
C        4.21725078       0.30811796      14.78070638       46       2.13462448       0.08284971       0.87361598
C        0.87308111      13.00504551       1.73003705       47       4.04564953      -0.32685107       0.80181926
Cl       3.00770496       9.37934726      14.69240021       48       0.46594843      -0.10113196       0.45060343
Cl       6.35577628       3.94086432       1.86969533       49       1.52525604       0.49237642      -1.24440026
Cl       4.06447601      10.16155046      10.43221686       50      -0.19489230      -0.28497973       0.13165110
Cl       0.71033976       3.21772962       6.11907474       51      -0.01466496      -0.02532703      -0.21710451
O        3.06050060       5.52505546       6.84671913       52       0.77939117      -0.11973315      -0.00658058
O        6.44331497       7.78850060       9.71472670       53      -2.31648731      -0.10293537      -0.83541989
O        5.38219262       5.26924313       9.47704173       54      -0.49764955      -0.26319414       0.28845057
O        1.97620931       8.05078780       7.13735374       55      -1.23215675       0.82932776      -1.37440968
O        5.33310645       5.63525351       6.76346665       56       1.40096545       0.63268161       0.70583010
O        1.93599920       7.67735354       9.84565689       57       2.25036001      -0.50734490      -0.60536897
O        6.41062995       8.05793952       7.03642396       58      -0.50662363       0.20253682      -0.52263314
O        3.10068809       5.27961549       9.53037091       59      -0.62939727       0.07203995      -0.23440939
O        4.12958140       7.44492225       8.37272916       60       1.59726143       0.45618239       0.37398648
O        0.78133628       5.86785477       8.14347091       61       1.48955321      -0.35872218       0.06486501
O        5.36521860      -0.07668450      15.27465674       62      -0.99804372       0.98140430      -1.56064844
O        2.05247999      13.39021068       1.34576967       63      -0.79868138      -0.23142289       0.28496134
O        3.09429791       1.17669289       1.37297776       64       0.18548448       0.29370779      -0.34174415
O        6.49166766      12.14284377      15.19663823       65      -3.57841396       1.50359082       1.24455929
O        3.11966359      -0.04343626      15.24807682       66      -1.59782219      -0.16644883       0.00422415
O        6.50049305      13.36324179       1.28931735       67      -3.64913845       1.13536727      -1.47082281
O        2.02218608      12.15600604      15.28264149       68      -0.50103247      -0.11064881      -0.89895952
O        5.33944975       1.16337417       1.33182093       69       2.22936845      -0.80883121      -0.98801446
O        4.18945827      12.57184755      16.54355153       70       1.18640661       0.00121689       0.10881348
O        0.83890037       0.74038408      -0.00862874       71       0.88946545       0.07622722      -0.02888680
72
Lattice="6.69828726 0.0 0.0 0.00022257341112709385 14.698613518314843 0.0 -0.00011357602346840509 -1.2664889993635036 16.627712439032443" Properties=species:S:1:pos:R:3:spacegroup_kinds:I:1:forces:R:3 spacegroup="P 1" unit_cell=conventional occupancy="_JSON {\"0\": {\"Al\": 1}, \"1\": {\"Al\": 1}, \"2\": {\"Al\": 1}, \"3\": {\"Al\": 1}, \"4\": {\"H\": 1}, \"5\": {\"H\": 1}, \"6\": {\"H\": 1}, \"7\": {\"H\": 1}, \"8\": {\"H\": 1}, \"9\": {\"H\": 1}, \"10\": {\"H\": 1}, \"11\": {\"H\": 1}, \"12\": {\"H\": 1}, \"13\": {\"H\": 1}, \"14\": {\"H\": 1}, \"15\": {\"H\": 1}, \"16\": {\"C\": 1}, \"17\": {\"C\": 1}, \"18\": {\"C\": 1}, \"19\": {\"C\": 1}, \"20\": {\"C\": 1}, \"21\": {\"C\": 1}, \"22\": {\"C\": 1}, \"23\": {\"C\": 1}, \"24\": {\"C\": 1}, \"25\": {\"C\": 1}, \"26\": {\"C\": 1}, \"27\": {\"C\": 1}, \"28\": {\"C\": 1}, \"29\": {\"C\": 1}, \"30\": {\"C\": 1}, \"31\": {\"C\": 1}, \"32\": {\"C\": 1}, \"33\": {\"C\": 1}, \"34\": {\"C\": 1}, \"35\": {\"C\": 1}, \"36\": {\"C\": 1}, \"37\": {\"C\": 1}, \"38\": {\"C\": 1}, \"39\": {\"C\": 1}, \"40\": {\"C\": 1}, \"41\": {\"C\": 1}, \"42\": {\"C\": 1}, \"43\": {\"C\": 1}, \"44\": {\"C\": 1}, \"45\": {\"C\": 1}, \"46\": {\"C\": 1}, \"47\": {\"C\": 1}, \"48\": {\"Cl\": 1}, \"49\": {\"Cl\": 1}, \"50\": {\"Cl\": 1}, \"51\": {\"Cl\": 1}, \"52\": {\"O\": 1}, \"53\": {\"O\": 1}, \"54\": {\"O\": 1}, \"55\": {\"O\": 1}, \"56\": {\"O\": 1}, \"57\": {\"O\": 1}, \"58\": {\"O\": 1}, \"59\": {\"O\": 1}, \"60\": {\"O\": 1}, \"61\": {\"O\": 1}, \"62\": {\"O\": 1}, \"63\": {\"O\": 1}, \"64\": {\"O\": 1}, \"65\": {\"O\": 1}, \"66\": {\"O\": 1}, \"67\": {\"O\": 1}, \"68\": {\"O\": 1}, \"69\": {\"O\": 1}, \"70\": {\"O\": 1}, \"71\": {\"O\": 1}}" energy=-504.521484375 free_energy=-504.521484375 stress="-0.02710014581680298 -0.0010102216619998217 0.002720015123486519 -0.0010102216619998217 -0.009798712097108364 0.0010862895287573338 0.002720015123486519 0.0010862895287573338 -0.013701722957193851" pbc="T T T"
Al       5.88189839       6.64379662       8.27644541        0      -0.93376297       0.77460480      -0.34694090
Al       2.54758145       6.61321600       8.36706609        1      -2.24416113      -0.55538321      -1.20311117
Al       2.55460183      -0.07604163      -0.04829407        2      -0.71324110       0.30418524       0.58263659
Al       5.88727495      13.38199507      16.58473078        3      -0.77993858      -1.05374074       0.09402845
H        2.48708527       8.11636876      12.34718321        4       2.24651718      -2.56335139      -0.42696995
H        5.77842978       5.27080883       4.24073373        5       3.58334875       3.79314876       0.28225183
H        4.61939785      11.56913744      12.72578827        6      -1.37617850      -0.16012427       0.91652453
H        1.31045893       1.80867844       3.84060572        7      -1.75452757      -0.19263145      -1.20924473
H        5.92332356      11.35492375      10.13611743        8       1.57262719       2.13861418      -3.36572647
H        2.56124084       1.93765518       6.48884161        9       0.54093075      -0.15825151       0.41809526
H        5.63706388      12.75812948      12.06886358       10       0.59832013       0.44740382       0.07982270
H        2.44183705       0.65967801       4.45380770       11       0.17427687      -1.35569978       0.03863648
H        4.11554514       8.26142657       8.82765881       12       0.09357750       0.02615762      -0.15845430
H        0.76979215       4.99168229       7.62394482       13       0.12056089       0.39375743       0.27917296
H        4.13818961      11.62584393      16.21213624       14      -0.02444513       0.20143136       0.11625626
H        0.78654485       1.62918463       0.25457510       15       0.13353735       0.40597451       0.08401971
C        4.26353764       4.85315348       9.90466748       16      -2.48589134       2.48272085      -1.69338310
C        0.84669517       8.40096675       6.58020702       17       1.15943861      -0.12966354       1.79708302
C        4.24094370       5.21882629       6.37256709       18      -5.79548454      -1.45621574      -1.96367431
C        0.80767181       8.10930993      10.18635509       19       1.30231619       0.86450732       2.49194336
C        6.68231800      10.06031509      11.59592975       20      -1.69828629      -2.01784611      -2.26750588
C        3.24382937       3.28943339       4.93004241       21       3.27616501       3.00206113       0.01620561
C        0.79741863       8.98997706      11.39185250       22       0.84508008      -0.27200702      -0.29830456
C        4.22205572       4.33034300       5.13780433       23      -2.71302152      -0.75134343       2.04569054
C        1.74985941       8.80365192      12.39520636       24      -1.90665030       2.17096329       0.55300939
C        5.13756356       4.53457852       4.17924513       25      -1.77543545      -5.16536427      -3.02254081
C        1.78407253       9.65330878      13.49100320       26      -1.23243213       1.75538588       0.33682641
C        5.23405331       3.60194508       3.06708218       27      -3.01774406      -0.14170913       1.40110946
C        0.83797367      10.75840069      13.65953206       28       1.43530023      -0.41893879       0.61357313
C        4.23697426       2.57463333       2.80129222       29       0.39759290       1.44749367       1.54181290
C        6.55632870      10.83731084      12.67949031       30       4.23324823      -0.00375295       3.85124826
C        3.24663190       2.47447845       3.80723563       31       4.14152336       2.91953707      -1.95959401
C        5.53858601      11.68930311      12.21855936       32      -2.31355524       1.83833301      -1.08458877
C        2.23290567       1.69227435       4.31997186       33      -3.05148458      -3.00758410       1.00097477
C        5.61813160      10.83802311      10.94162820       34      -1.99986887      -0.89197415       0.62910366
C        2.25581538       2.50062034       5.60769534       35      -1.09904957      -0.72813606       1.67927837
C        0.86515043      12.04948246       2.78132094       36       0.53522116      -1.54278827       1.26271594
C        4.22457897       1.27942134      13.67842829       37       0.08986831      -3.18933773       2.93900681
C        0.95160246      11.18353168       3.66019555       38      -0.11871451       0.45099550      -0.37544939
C        4.18130407       2.08421049      12.79332860       39       0.14589131       1.99347520      -1.93581951
C        0.97866111      10.24273815       4.63804539       40      -0.18572217       1.14562988      -1.11239803
C        4.26059057       3.03343025      11.85818594       41      -0.50438589       4.52731895      -4.56511164
C        0.86780157       9.42472764       5.52765265       42       0.32157916      -1.74282026       1.40499127
C        4.19758469       3.96494933      10.93395392       43       0.43792683      -6.61451674       6.41585922
C        4.24827410       1.61153103       1.69465435       44      -2.70826507      -0.86234391       1.01369488
C        0.85696292      11.81902424      14.75594804       45       7.83862305      -3.67379951      -1.71945119
C        4.22449016       0.27820548      14.75111251       46      -0.36290663      -0.33696213       2.13500214
C        0.88639157      12.97708848       1.70297180       47       4.68063116       0.38519949       0.73604661
Cl       2.97823385       9.35113727      14.66249330       48       0.53782207      -0.14124006       0.50287080
Cl       6.32613226       3.91119557       1.89800021       49       2.22759581       0.68309802      -1.84076381
Cl       4.09435438      10.18101529      10.42322153       50      -0.74597836      -0.65121728       0.09422371
Cl       0.73635792       3.18836309       6.08924558       51      -0.81539035       0.38111663      -0.05449124
O        3.03117418       5.49519723       6.82844734       52       1.71691287      -0.23907192      -0.09409316
O        6.45230677       7.76056921       9.69124830       53      -4.19737005      -0.47877651      -1.54718471
O        5.35562793       5.24025981       9.45626133       54       1.59672642       0.20571631      -0.28310293
O        1.94632055       8.02093585       7.15610808       55      -0.53489578       0.99075156      -1.65803170
O        5.30753561       5.60897720       6.77274102       56       3.33630276       1.28164434       1.45651782
O        1.91014791       7.64743229       9.86703894       57       2.86002207      -0.69639516      -0.95387793
O        6.42320116       8.02820763       7.02765286       58      -1.10903037       0.22224426      -0.75842679
O        3.10644344       5.30460788       9.50142146       59       0.48760360      -1.25035286       0.90443212
O        4.10142444       7.41492746       8.34778246       60       2.34638309       0.76342350       0.40083814
O        0.75150365       5.83798530       8.11624666       61       1.88929796      -0.55624038       0.15154584
O        5.33875748      -0.10644563      15.27817741       62      -0.51815641       1.00547838      -1.90111971
O        2.07046123      13.40958617       1.33710117       63      -1.40704715      -0.98623145       0.72139341
O        3.06610139       1.14674467       1.37019250       64       1.16476262       0.79140139      -0.31473979
O        6.51594891      12.11891393      15.18952319       65      -7.53801346       2.87971282       2.80913949
O        3.09482523      -0.07332675      15.27044962       66       0.53029382       0.94572055      -1.59933591