92
Lattice="7.53216936 0.0 0.0 3.765307238324521 9.210422354913398 0.0 3.763266389857429 2.2453186510871963 12.421030887724642" Properties=species:S:1:pos:R:3:spacegroup_kinds:I:1:forces:R:3 spacegroup="P 1" unit_cell=conventional occupancy="_JSON {\"0\": {\"Cd\": 1}, \"1\": {\"Cd\": 1}, \"2\": {\"Cd\": 1}, \"3\": {\"Cd\": 1}, \"4\": {\"H\": 1}, \"5\": {\"H\": 1}, \"6\": {\"H\": 1}, \"7\": {\"H\": 1}, \"8\": {\"H\": 1}, \"9\": {\"H\": 1}, \"10\": {\"H\": 1}, \"11\": {\"H\": 1}, \"12\": {\"H\": 1}, \"13\": {\"H\": 1}, \"14\": {\"H\": 1}, \"15\": {\"H\": 1}, \"16\": {\"H\": 1}, \"17\": {\"H\": 1}, \"18\": {\"H\": 1}, \"19\": {\"H\": 1}, \"20\": {\"H\": 1}, \"21\": {\"H\": 1}, \"22\": {\"H\": 1}, \"23\": {\"H\": 1}, \"24\": {\"H\": 1}, \"25\": {\"H\": 1}, \"26\": {\"H\": 1}, \"27\": {\"H\": 1}, \"28\": {\"H\": 1}, \"29\": {\"H\": 1}, \"30\": {\"H\": 1}, \"31\": {\"H\": 1}, \"32\": {\"H\": 1}, \"33\": {\"H\": 1}, \"34\": {\"H\": 1}, \"35\": {\"H\": 1}, \"36\": {\"H\": 1}, \"37\": {\"H\": 1}, \"38\": {\"H\": 1}, \"39\": {\"H\": 1}, \"40\": {\"C\": 1}, \"41\": {\"C\": 1}, \"42\": {\"C\": 1}, \"43\": {\"C\": 1}, \"44\": {\"C\": 1}, \"45\": {\"C\": 1}, \"46\": {\"C\": 1}, \"47\": {\"C\": 1}, \"48\": {\"C\": 1}, \"49\": {\"C\": 1}, \"50\": {\"C\": 1}, \"51\": {\"C\": 1}, \"52\": {\"C\": 1}, \"53\": {\"C\": 1}, \"54\": {\"C\": 1}, \"55\": {\"C\": 1}, \"56\": {\"C\": 1}, \"57\": {\"C\": 1}, \"58\": {\"C\": 1}, \"59\": {\"C\": 1}, \"60\": {\"N\": 1}, \"61\": {\"N\": 1}, \"62\": {\"N\": 1}, \"63\": {\"N\": 1}, \"64\": {\"N\": 1}, \"65\": {\"N\": 1}, \"66\": {\"N\": 1}, \"67\": {\"N\": 1}, \"68\": {\"N\": 1}, \"69\": {\"N\": 1}, \"70\": {\"N\": 1}, \"71\": {\"N\": 1}, \"72\": {\"N\": 1}, \"73\": {\"N\": 1}, \"74\": {\"N\": 1}, \"75\": {\"N\": 1}, \"76\": {\"N\": 1}, \"77\": {\"N\": 1}, \"78\": {\"N\": 1}, \"79\": {\"N\": 1}, \"80\": {\"O\": 1}, \"81\": {\"O\": 1}, \"82\": {\"O\": 1}, \"83\": {\"O\": 1}, \"84\": {\"O\": 1}, \"85\": {\"O\": 1}, \"86\": {\"O\": 1}, \"87\": {\"O\": 1}, \"88\": {\"O\": 1}, \"89\": {\"O\": 1}, \"90\": {\"O\": 1}, \"91\": {\"O\": 1}}" energy=-571.4293212890625 free_energy=-571.4293212890625 stress="-0.01866537146270275 0.005200324114412069 -0.0014916846994310617 0.005200324114412069 0.0018364437855780125 -0.0003472750831861049 -0.0014916846994310617 -0.0003472750831861049 -0.004496440291404724" pbc="T T T"
Cd       8.85630748       7.27265918      10.60987116        0      -0.02309512       0.19819678       0.01079953
Cd      12.63641034       9.93162087       8.02197930        1      -0.10904764      -0.04635535      -0.11505745
Cd       6.17974139       4.17510004       1.80969341        2       0.20617867      -0.06247908       0.06501991
Cd       2.41662476       1.52541213       4.34645442        3       0.33405459       0.31474501       0.37698784
H        4.92352623       5.09694255       8.48449504        4       0.33427051      -0.37381396      -0.25803500
H        4.94107441       2.82274481      10.19828243        5       0.12859479       0.25849283      -0.05317558
H       10.13968268       6.30515367       3.97963352        6      -0.14583999       0.19893849      -0.16044924
H       10.09452870       8.61915084       2.22016277        7       0.80099165       0.81758547       0.59276593
H       12.11288861       6.83573203       8.53805944        8       0.21231106      -0.23592065       0.02912696
H        8.38345716      10.32458754      10.08275602        9      -0.40076452       0.40070426       0.00499319
H        2.90979244       4.62001073       3.89323234       10      -0.14781383      -0.66168571      -0.02561250
H        6.71682344       1.14712251       2.34359038       11      -0.15360764       0.25926015       0.13205796
H       10.57333942       5.42263282       7.11750107       12      -0.06412420       0.02278531      -0.23764423
H       10.60570250       2.50566166      11.54265173       13      -0.22104116       0.03021783      -0.19317815
H        4.45322292       6.00110452       5.29582286       14       0.06240221      -0.19024405       0.02293181
H        4.45137245       8.95718406       0.86940703       15       0.13826874       0.02129195       0.66016531
H        9.93445467       4.73500921       8.58524405       16      -0.47663382      -0.46960866       0.17330678
H        9.91700219       3.27256236      10.09570054       17      -0.24420314       0.41896152      -0.30199388
H        5.13717750       6.77564057       3.88657977       18      -0.37598810      -0.69723147      -0.14807501
H        5.15949654       8.17356859       2.33802052       19      -0.60186404       0.81652969      -0.21075189
H        7.79870300       5.55572191       7.81140999       20       0.28050390       0.93624949      -0.07682537
H        7.83253903       2.39976393      10.79405157       21       0.20946017      -0.73132569       0.21822739
H        7.21726939       5.87049534       4.62319179       22       0.31805313       0.47862101      -0.19016658
H        7.23417387       9.08830859       1.58065433       23       0.45225286      -0.87465006       0.26850051
H        8.38487349       6.61778718       6.50702650       24       0.02567819       0.22594236      -0.33354855
H       12.18228747      10.52634173      12.11668596       25      -0.08298896      -0.14176986      -0.09788087
H        6.67293827       4.81078674       5.92587821       26      -0.00321835      -0.20843405      -0.32998189
H        2.88207550       0.92054372       0.33602543       27      -0.17210101       0.22833198      -1.49294591
H        8.26703990       4.73429079      11.67749850       28       0.23712167      -0.19047354       0.82287228
H        8.29440707       3.22243064       6.90558007       29      -0.44309276      -0.36841464       1.40818572
H        6.80242689       6.70377413       0.69481531       30       0.25608623      -0.04213466      -0.01253770
H        6.76001123       8.21146235       5.50130221       31       0.59077114       0.30495703      -0.74744171
H        7.01546356       5.00465343      10.82461998       32      -2.17070866       0.12003259       0.05763271
H        6.96529736       2.97259560       7.81035522       33       0.74550080      -0.21623157       0.08423062
H        8.09940363       6.45588823       1.63117940       34      -0.00026764      -0.16863424      -0.29407200
H        8.03830102       8.47587949       4.57566199       35       2.57233763       0.05567871       0.27237427
H        9.91288895       7.59662357       8.05771532       36       0.23025396       0.70512509      -0.23919885
H       13.69136410       9.54816486      10.61401525       37      -0.29097155       0.42646241      -0.26868463
H        5.13661606       3.87791361       4.37699324       38      -0.13281429      -0.78240538       0.18734083
H        1.39645161       1.85274844       1.80666187       39      -0.44691959       0.97417003      -0.26104426
C       11.81237271       5.79105529      10.33371047       40      -1.19630384      -0.31786409       0.86771601
C        4.25890981       2.19500196       8.30566237       41       0.74586570       0.89008200      -0.04750991
C        3.24713538       5.67036077       2.06143211       42       0.63492268      -0.30347568       2.28483844
C       10.83487543       9.23650135       4.10517508       43      -1.05924475      -0.32066041       1.65309477
C       11.75436017       5.83015812       8.85326367       44      -0.33568433       1.41762173      -0.32529929
C        4.19940450       2.12137344       9.80614175       45       1.59298766      -0.92404592      -0.74468809
C        3.30896564       5.57361977       3.56170174       46      -0.81700778       0.43632561      -0.30463725
C       10.85135950       9.37047766       2.65243949       47      -1.32386708      -1.05269754      -1.34306169
C       10.37479870       5.63862487       8.17736892       48       1.54811859      -0.95673239       0.11718290
C       10.42302183       2.38451131      10.45311714       49      -1.13146877      -1.72795546       0.92353296
C        4.63574531       5.82052236       4.21741899       50       1.04614401       0.89217818       0.47848421
C        4.64277818       9.12365845       1.97363099       51       0.41381887      -1.58725810      -1.02177262
C        8.20762690       6.59091086       7.57878126       52       0.95315444      -1.33376765       0.81803465
C       12.01908984      10.59077824      11.03130710       53      -1.14546466       0.29810032      -0.32964665
C        6.85382850       4.87384682       4.83581389       54      -1.91039920       0.05996920      -0.33352530
C        3.09119251       0.85477337       1.36715005       55      -1.41198802       0.67010510       1.61357105
C        7.19399790       7.61017402       7.98111190       56       0.38099295       0.23432666       2.92005873
C       10.96416381       9.54941503      10.59272860       57      -0.89488167       0.82019287       3.71298122
C        7.86452487       3.87229547       4.41563603       58       1.14057839      -1.19847345      -1.33729470
C        4.12228916       1.90423317       1.77140150       59      -1.06684411      -1.14887285       0.58565551
N       10.84421097       6.23347285      11.17554853       60      -0.05235267       0.45851177       0.48543981
N        3.31535895       1.75180489       7.47739610       61      -0.38557822      -0.44062805      -0.58792043
N        4.19582458       5.20804065       1.27633817       62       1.69145393      -0.59313983      -1.26263618
N       11.76272979       9.70063751       4.94943372       63       0.62868321      -0.03669114       0.47602054
N       11.29282289       5.95333521      12.43804425       64      -0.65060335       0.05276866      -1.71130860
N        3.76293628       2.02875715       6.23551397       65      -0.85587019      -0.13436940      -0.15212688
N        3.82226370       5.50744826       0.02577342       66      -1.30173373       0.19532749       0.48234284
N       11.32842940       9.40512923       6.18395077       67      -0.16669163       0.29970077       0.32049164
N       12.40065583       5.28250606      12.34600706       68       0.69433892      -0.06279711       0.84269345
N        4.87757346       2.68456689       6.26552442       69       0.62769389      -0.07401788       0.83849406
N        2.63190370       6.13427499       0.08136716       70       1.07084513      -0.21139194      -1.19909573
N       10.14975435       8.80266317       6.16249789       71       0.88929468       0.18194568      -1.33863842
N        5.22919274       5.18882920      11.06329278       72       0.84390825      -0.32961112      -0.19399129
N        5.26159275       2.78737589       7.58401812       73      -0.41340920      -0.16823140      -0.23466566
N        9.83161197       6.24059751       1.35734438       74      -1.87609267       0.80572271      -0.22705597
N        9.82754384       8.67767573       4.84063270       75      -0.30966559      -0.00511700       0.00575024
N        9.48042033       6.72428513       8.34541967       76      -1.70486367      -0.16990465      -0.30077800
N       13.21472022      10.41474169      10.25540911       77       1.78037310       1.38537645       0.68201327
N        5.58668441       4.72082587       4.02928938       78       1.00223505       1.13558114       0.98501474
N        1.79996494       0.99249243       2.14789864       79       2.17229581      -0.48472831      -0.53942531
O        7.16697150       8.06507818       9.21798489       80       0.46486154      -0.65611756      -1.45460033
O       10.94310302       9.09290543       9.45707528       81       0.15650579      -0.81504333      -2.59358406
O        7.91576683       3.38467186       3.20166759       82      -0.57301295       0.84241581       1.35040689
O        4.14585346       2.31967351       2.96610245       83      -0.12672096       0.35972285       0.67567444
O        6.30756850       7.90623389       7.15946642       84      -1.22456384       0.87195909      -1.25931072
O       10.05612624       9.22730763      11.49717381       85       0.84267497       0.08247286      -1.03097093
O        8.75189248       3.55366633       5.28275792       86      -0.01011049      -0.39347875      -0.07068595
O        4.97903533       2.21195579       0.90868350       87       1.12213194       0.84846425      -0.77684093
O        7.96713118       5.02615661      10.80010269       88       1.95224309       0.27513772      -1.02355528
O        7.99616661       2.96888412       7.87428863       89      -0.32797998       0.37387913      -1.54710007
O        7.09855894       6.44611716       1.61352458       90      -0.32774583      -0.03149843       0.31078041
O        7.09407911       8.49466155       4.58224440       91      -3.22395873      -0.16078532       0.52223468
92
Lattice="7.53216936 0.0 0.0 3.765307238324521 9.210422354913398 0.0 3.763266389857429 2.2453186510871963 12.421030887724642" Properties=species:S:1:pos:R:3:spacegroup_kinds:I:1:forces:R:3 spacegroup="P 1" unit_cell=conventional occupancy="_JSON {\"0\": {\"Cd\": 1}, \"1\": {\"Cd\": 1}, \"2\": {\"Cd\": 1}, \"3\": {\"Cd\": 1}, \"4\": {\"H\": 1}, \"5\": {\"H\": 1}, \"6\": {\"H\": 1}, \"7\": {\"H\": 1}, \"8\": {\"H\": 1}, \"9\": {\"H\": 1}, \"10\": {\"H\": 1}, \"11\": {\"H\": 1}, \"12\": {\"H\": 1}, \"13\": {\"H\": 1}, \"14\": {\"H\": 1}, \"15\": {\"H\": 1}, \"16\": {\"H\": 1}, \"17\": {\"H\": 1}, \"18\": {\"H\": 1}, \"19\": {\"H\": 1}, \"20\": {\"H\": 1}, \"21\": {\"H\": 1}, \"22\": {\"H\": 1}, \"23\": {\"H\": 1}, \"24\": {\"H\": 1}, \"25\": {\"H\": 1}, \"26\": {\"H\": 1}, \"27\": {\"H\": 1}, \"28\": {\"H\": 1}, \"29\": {\"H\": 1}, \"30\": {\"H\": 1}, \"31\": {\"H\": 1}, \"32\": {\"H\": 1}, \"33\": {\"H\": 1}, \"34\": {\"H\": 1}, \"35\": {\"H\": 1}, \"36\": {\"H\": 1}, \"37\": {\"H\": 1}, \"38\": {\"H\": 1}, \"39\": {\"H\": 1}, \"40\": {\"C\": 1}, \"41\": {\"C\": 1}, \"42\": {\"C\": 1}, \"43\": {\"C\": 1}, \"44\": {\"C\": 1}, \"45\": {\"C\": 1}, \"46\": {\"C\": 1}, \"47\": {\"C\": 1}, \"48\": {\"C\": 1}, \"49\": {\"C\": 1}, \"50\": {\"C\": 1}, \"51\": {\"C\": 1}, \"52\": {\"C\": 1}, \"53\": {\"C\": 1}, \"54\": {\"C\": 1}, \"55\": {\"C\": 1}, \"56\": {\"C\": 1}, \"57\": {\"C\": 1}, \"58\": {\"C\": 1}, \"59\": {\"C\": 1}, \"60\": {\"N\": 1}, \"61\": {\"N\": 1}, \"62\": {\"N\": 1}, \"63\": {\"N\": 1}, \"64\": {\"N\": 1}, \"65\": {\"N\": 1}, \"66\": {\"N\": 1}, \"67\": {\"N\": 1}, \"68\": {\"N\": 1}, \"69\": {\"N\": 1}, \"70\": {\"N\": 1}, \"71\": {\"N\": 1}, \"72\": {\"N\": 1}, \"73\": {\"N\": 1}, \"74\": {\"N\": 1}, \"75\": {\"N\": 1}, \"76\": {\"N\": 1}, \"77\": {\"N\": 1}, \"78\": {\"N\": 1}, \"79\": {\"N\": 1}, \"80\": {\"O\": 1}, \"81\": {\"O\": 1}, \"82\": {\"O\": 1}, \"83\": {\"O\": 1}, \"84\": {\"O\": 1}, \"85\": {\"O\": 1}, \"86\": {\"O\": 1}, \"87\": {\"O\": 1}, \"88\": {\"O\": 1}, \"89\": {\"O\": 1}, \"90\": {\"O\": 1}, \"91\": {\"O\": 1}}" energy=-570.227294921875 free_energy=-570.227294921875 stress="-0.017467312514781952 0.004941564053297043 -0.000594039389397949 0.004941564053297043 -0.008327175863087177 0.0011099670082330704 -0.000594039389397949 0.0011099670082330704 -0.0009219931089319289" pbc="T T T"
Cd       8.88225903       7.27462586      10.60255454        0      -0.18387809       0.23277029       0.01125872
Cd      12.64013907       9.91703385       8.00606241        1      -0.10885915      -0.18660748       0.13857463
Cd       6.17880294       4.16451832       1.79703937        2       0.19860747      -0.04444628       0.13548839
Cd       2.39305779       1.52556588       4.37335623        3       0.42088291       0.20512022       0.21289401
H        4.90672174       5.11803851       8.47437178        4       1.27499425      -1.55148721      -0.79216915
H        4.93355517       2.84705143      10.19000472        5       0.22715273       0.34853911       0.03453729
H       10.11108741       6.29731852       3.96650488        6      -0.00077704       0.14750728       0.04217102
H       10.08212990       8.59334501       2.21871323        7       1.09843397       1.35223508       0.70503753
H       12.13910847       6.81888738       8.54326966        8       0.00875810      -0.29363024       0.01380190
H        8.37073530      10.33673963      10.08840603        9      -0.34117913       0.57684916      -0.10051466
H        2.91876815       4.62719013       3.86511216       10      -0.61541259      -1.92381430       0.47390658
H        6.70797063       1.12499494       2.34341096       11      -0.61121333       1.60433435      -0.26774713
H       10.55819763       5.39888586       7.11414525       12      -0.09326080      -0.05428737      -0.75290084
H       10.62686174       2.50642224      11.52011378       13      -0.34660694       0.07102951       0.60918236
H        4.47301991       6.01898856       5.31152210       14       0.23524788      -0.40432009      -0.85679090
H        4.47192813       8.97579000       0.87024180       15      -0.12050905      -0.29838496      -0.20022587
H        9.95992031       4.73567394       8.60183759       16      -0.84232962      -0.55731535       0.15011276
H        9.93884749       3.29818018      10.09571749       17      -0.39814800       0.26382035      -0.16080877
H        5.12623119       6.74786702       3.91234865       18       0.28106618       0.60565591      -0.85728884
H        5.13015699       8.16538740       2.34443925       19      -0.47433704       0.69324958      -0.28765512
H        7.81039531       5.54953987       7.80001135       20       0.20377958       1.19665504      -0.13158183
H        7.82453488       2.38287609      10.81898225       21       0.00506960       0.07768469      -0.14756751
H        7.22095015       5.89516090       4.63830676       22       0.36563265       0.44425189      -0.23678952
H        7.21273495       9.10678757       1.55954719       23       0.95761055      -2.51151156       0.61075485
H        8.40599943       6.63091330       6.51096426       24      -0.26196340       0.35588977      -0.56530350
H       12.16807172      10.55029961      12.12364626       25      -0.05589654      -0.31624857      -0.60376924
H        6.69565642       4.81821082       5.90488209       26      -0.41094700      -0.22825435       1.26390350
H        2.90069837       0.94568862       0.35803238       27      -0.29378253       0.29737142      -2.18050051
H        8.29117934       4.72034066      11.66538325       28       0.24023366       0.02731842       0.37065417
H        8.31991209       3.23912244       6.87738861       29      -0.77159584      -0.75745440       2.40711403
H        6.79194415       6.71926798       0.66987352       30       0.67161840      -0.41177249       1.34834719
H        6.74055457       8.22134518       5.48270369       31       0.61888933       0.02614837       0.19245496
H        7.03004242       5.00687754      10.85145810       32      -1.42452884       0.20921196      -0.15514308
H        6.98324841       2.98535661       7.81488450       33       0.53569424      -0.27890629       0.13271660
H        8.09748805       6.46034657       1.64954603       34      -0.25499225      -0.21324772      -0.28848013
H        8.06384428       8.49601533       4.56018106       35       1.72088099      -0.01036315       0.50032872
H        9.89203057       7.57770468       8.05844437       36       1.10072243       2.30115461      -0.79332769
H       13.71934626       9.54212332      10.61089915       37      -0.76445407       1.24104118      -0.55677485
H        5.15714465       3.89622971       4.35485887       38      -0.51884609      -1.52107215       0.55534458
H        1.42137053       1.82681241       1.82821298       39      -1.58484864       3.15731978      -1.08892417
C       11.79092033       5.76480287      10.34796194       40      -1.63916695       0.51962805      -1.48002744
C        4.23370563       2.21490042       8.29231989       41       1.41795063       0.99334693       1.64754248
C        3.27208150       5.68794303       2.07608657       42      -0.78337914      -0.40550119       1.56230581
C       10.84310292       9.21842956       4.10216614       43      -1.31573319       0.41865230       1.60176742
C       11.75069535       5.81159261       8.82602728       44      -1.41190982       2.72934341       1.02073312
C        4.20016421       2.14285403       9.80744901       45       0.87060350      -1.15467393      -0.83775532
C        3.29637778       5.56126509       3.58676034       46       0.35919803       1.89710200      -1.44015431
C       10.84499028       9.39429226       2.63524832       47      -1.05078292      -3.47382832      -0.70547998
C       10.34956258       5.63494755       8.15034357       48       2.17337847      -0.59573889       0.78958136
C       10.39477162       2.38410504      10.46503870       49       0.27577579      -1.16575122      -0.31461808
C        4.65195255       5.82501289       4.19423010       50      -0.21378043      -0.35219660       2.45238495
C        4.62762332       9.10073772       1.94884437       51       0.59348214      -0.34587753       0.09033331
C        8.17817353       6.61043190       7.56642986       52       2.38991737      -2.62144995       0.94132018
C       12.00699677      10.59834354      11.02049849       53      -0.23275247      -0.31160814      -0.11772674
C        6.85576926       4.90353413       4.86269163       54      -1.48664093      -0.67378545      -2.29504609
C        3.07406447       0.83420664       1.37519323       55      -1.59335089       2.33718371       1.69939721
C        7.21247023       7.58526431       8.00641200       56      -2.69040346       1.71704173       0.20638964
C       10.95203851       9.56512974      10.57602153       57      -0.02157429       0.54109687       3.42406106
C        7.83828165       3.85487812       4.43964797       58       1.07442915      -0.69953215      -3.25179815
C        4.09343380       1.87592279       1.80012730       59       0.47263953      -0.47105366      -1.46661758
N       10.82704740       6.25032254      11.15052706       60       0.72545457      -0.24199922       1.95699382
N        3.30090385       1.73844697       7.50614628       61       0.00424227      -0.29205567      -1.97107935
N        4.17809360       5.21678760       1.25955340       62       2.61022496      -0.64867002      -1.17722392
N       11.74021295       9.72190804       4.96084142       63       1.25154519      -0.21444416       0.41233671
N       11.31897575       5.97376313      12.44932846       64      -0.80931509       0.06379110      -2.35618234
N        3.78921673       2.01293653       6.24735475       65      -2.60162544      -0.83954132      -0.42919129
N        3.80051148       5.52585950       0.00579516       66      -1.18118715       0.02894312       1.05210292
N       11.34005322       9.43179141       6.21338996       67      -1.69610012      -0.20904806      -1.22893858
N       12.42891213       5.29680439      12.33721059       68       0.10714015       0.39950168       0.60681272
N        4.85206609       2.69589277       6.25970633       69       1.55984271       0.29062498       1.42727804
N        2.61840476       6.13041059       0.07758324       70       0.25824261       0.01743317      -0.29502127
N       10.13437990       8.82853308       6.15948380       71       1.03771949       0.15264468      -1.00780714
N        5.22415752       5.20552946      11.03926377       72       1.50883341      -0.97485757       0.69125056
N        5.24093381       2.81592000       7.59730315       73      -0.42952687      -0.01634682      -0.70443773
N        9.80323964       6.21389172       1.38441870       74      -0.88766056       0.86299008      -0.99533129
N        9.80769695       8.69331304       4.83022237       75       0.51023901       0.06949084       0.63644242
N        9.47334884       6.73675259       8.31953136       76      -2.53961229      -2.09946108       0.39200592
N       13.23931913      10.43811986      10.23128505       77       0.58727610       0.20794271       1.69154775
N        5.60652018       4.72298752       4.03066144       78       1.09343386       2.19726610       0.65967494
N        1.78703141       0.99491348       2.12877678       79       2.98951173      -3.38264227       0.57290596
O        7.14100509       8.04387879       9.20409700       80       0.73537326      -0.52423382      -0.42298928
O       10.93913139       9.06996744       9.45967702       81       0.36788216      -0.68133110      -3.09218645
O        7.93461661       3.35977887       3.19323716       82      -1.16857827       1.31946564       2.30171204
O        4.14406617       2.29884035       2.96535989       83      -0.36775675       0.54564780       1.96711051
O        6.30541388       7.90823122       7.12987177       84       0.39918178       0.24891138       0.51672441
O       10.08228331       9.21147992      11.47388530       85       0.04606563       0.11900137      -0.02109107
O        8.72623636       3.54597516       5.27152171       86       0.73648274      -0.77110910       1.27817214
O        4.96321068       2.23485008       0.91742573       87      -0.01447057       0.16296305      -0.02421995
O        7.99478020       5.03318440      10.77765317       88       1.12609053      -0.02434744      -0.32501438
O        8.00248058       2.94450852       7.89134721       89       0.20046544       0.87186718      -2.70102429
O        7.08747942       6.45800808       1.63971657       90      -0.57082778       0.37526929      -1.14973474
O        7.10648681       8.52233352       4.60960059       91      -2.46339488       0.23190267      -0.67251098
92
Lattice="7.53216936 0.0 0.0 3.765307238324521 9.210422354913398 0.0 3.763266389857429 2.2453186510871963 12.421030887724642" Properties=species:S:1:pos:R:3:spacegroup_kinds:I:1:forces:R:3 spacegroup="P 1" unit_cell=conventional occupancy="_JSON {\"0\": {\"Cd\": 1}, \"1\": {\"Cd\": 1}, \"2\": {\"Cd\": 1}, \"3\": {\"Cd\": 1}, \"4\": {\"H\": 1}, \"5\": {\"H\": 1}, \"6\": {\"H\": 1}, \"7\": {\"H\": 1}, \"8\": {\"H\": 1}, \"9\": {\"H\": 1}, \"10\": {\"H\": 1}, \"11\": {\"H\": 1}, \"12\": {\"H\": 1}, \"13\": {\"H\": 1}, \"14\": {\"H\": 1}, \"15\": {\"H\": 1}, \"16\": {\"H\": 1}, \"17\": {\"H\": 1}, \"18\": {\"H\": 1}, \"19\": {\"H\": 1}, \"20\": {\"H\": 1}, \"21\": {\"H\": 1}, \"22\": {\"H\": 1}, \"23\": {\"H\": 1}, \"24\": {\"H\": 1}, \"25\": {\"H\": 1}, \"26\": {\"H\": 1}, \"27\": {\"H\": 1}, \"28\": {\"H\": 1}, \"29\": {\"H\": 1}, \"30\": {\"H\": 1}, \"31\": {\"H\": 1}, \"32\": {\"H\": 1}, \"33\": {\"H\": 1}, \"34\": {\"H\": 1}, \"35\": {\"H\": 1}, \"36\": {\"H\": 1}, \"37\": {\"H\": 1}, \"38\": {\"H\": 1}, \"39\": {\"H\": 1}, \"40\": {\"C\": 1}, \"41\": {\"C\": 1}, \"42\": {\"C\": 1}, \"43\": {\"C\": 1}, \"44\": {\"C\": 1}, \"45\": {\"C\": 1}, \"46\": {\"C\": 1}, \"47\": {\"C\": 1}, \"48\": {\"C\": 1}, \"49\": {\"C\": 1}, \"50\": {\"C\": 1}, \"51\": {\"C\": 1}, \"52\": {\"C\": 1}, \"53\": {\"C\": 1}, \"54\": {\"C\": 1}, \"55\": {\"C\": 1}, \"56\": {\"C\": 1}, \"57\": {\"C\": 1}, \"58\": {\"C\": 1}, \"59\": {\"C\": 1}, \"60\": {\"N\": 1}, \"61\": {\"N\": 1}, \"62\": {\"N\": 1}, \"63\": {\"N\": 1}, \"64\": {\"N\": 1}, \"65\": {\"N\": 1}, \"66\": {\"N\": 1}, \"67\": {\"N\": 1}, \"68\": {\"N\": 1}, \"69\": {\"N\": 1}, \"70\": {\"N\": 1}, \"71\": {\"N\": 1}, \"72\": {\"N\": 1}, \"73\": {\"N\": 1}, \"74\": {\"N\": 1}, \"75\": {\"N\": 1}, \"76\": {\"N\": 1}, \"77\": {\"N\": 1}, \"78\": {\"N\": 1}, \"79\": {\"N\": 1}, \"80\": {\"O\": 1}, \"81\": {\"O\": 1}, \"82\": {\"O\": 1}, \"83\": {\"O\": 1}, \"84\": {\"O\": 1}, \"85\": {\"O\": 1}, \"86\": {\"O\": 1}, \"87\": {\"O\": 1}, \"88\": {\"O\": 1}, \"89\": {\"O\": 1}, \"90\": {\"O\": 1}, \"91\": {\"O\": 1}}" energy=-569.2291870117188 free_energy=-569.2291870117188 stress="-0.014644408598542213 0.011371351778507233 0.004351782612502575 0.011371351778507233 -0.003861143486574292 0.0010124186519533396 0.004351782612502575 0.0010124186519533396 -0.011339718475937843" pbc="T T T"
Cd       8.85356216       7.24701985      10.62082221        0      -0.04069223       0.22881190      -0.20229051
Cd      12.61474264       9.93633773       8.00153217        1       0.06181948      -0.10189287       0.20003445
Cd       6.20114282       4.18684128       1.78630527        2       0.26725805      -0.04467560       0.23712136
Cd       2.40114228       1.49952089       4.35051401        3       0.64521390       0.37594491       0.34509280
H        4.91973332       5.12137468       8.46986216        4       0.53486359      -0.74973536      -0.25772294
H        4.95937387       2.86665000      10.17928027        5      -0.05761773       0.05239100       0.18356729
H       10.12130762       6.31928437       3.94524978        6      -0.36533424       0.50137061       0.22172748
H       10.05311056       8.60475335       2.19448133        7       1.28264046       1.36309838       1.05863404
H       12.13585068       6.84184162       8.56907817        8       0.02236103      -0.34738460       0.09130935
H        8.38186590      10.36141640      10.07941242        9       0.08832227      -0.43836832       0.27144140
H        2.91395737       4.63356395       3.88828868       10      -0.27923116      -0.89249134       0.04992184
H        6.69303427       1.13943148       2.37141568       11      -0.19927533       0.82700896      -0.09753794
H       10.58461891       5.41729426       7.11320984       12      -0.04721963       0.01617902      -0.04750130
H       10.62428131       2.52867810      11.53859483       13      -0.40601838      -0.01095039       0.37229985
H        4.50029130       6.01815735       5.28246625       14       0.03866373      -0.42066783      -0.68992662
H        4.46905036       8.97284659       0.89698921       15      -0.31824988      -0.35702115      -0.73447800
H        9.94630015       4.72660585       8.57678728       16      -0.42039162       0.03002090       0.03917296