116
Lattice="6.78375485 0.0 0.0 -1.2875852660179892 11.54923614735086 0.0 -0.00034319350352938067 1.3632007929404963e-06 14.791845116018628" Properties=species:S:1:pos:R:3:spacegroup_kinds:I:1:forces:R:3 spacegroup="P 1" unit_cell=conventional occupancy="_JSON {\"0\": {\"Ho\": 1}, \"1\": {\"Ho\": 1}, \"2\": {\"Ho\": 1}, \"3\": {\"Ho\": 1}, \"4\": {\"H\": 1}, \"5\": {\"H\": 1}, \"6\": {\"H\": 1}, \"7\": {\"H\": 1}, \"8\": {\"H\": 1}, \"9\": {\"H\": 1}, \"10\": {\"H\": 1}, \"11\": {\"H\": 1}, \"12\": {\"H\": 1}, \"13\": {\"H\": 1}, \"14\": {\"H\": 1}, \"15\": {\"H\": 1}, \"16\": {\"H\": 1}, \"17\": {\"H\": 1}, \"18\": {\"H\": 1}, \"19\": {\"H\": 1}, \"20\": {\"H\": 1}, \"21\": {\"H\": 1}, \"22\": {\"H\": 1}, \"23\": {\"H\": 1}, \"24\": {\"H\": 1}, \"25\": {\"H\": 1}, \"26\": {\"H\": 1}, \"27\": {\"H\": 1}, \"28\": {\"H\": 1}, \"29\": {\"H\": 1}, \"30\": {\"H\": 1}, \"31\": {\"H\": 1}, \"32\": {\"H\": 1}, \"33\": {\"H\": 1}, \"34\": {\"H\": 1}, \"35\": {\"H\": 1}, \"36\": {\"H\": 1}, \"37\": {\"H\": 1}, \"38\": {\"H\": 1}, \"39\": {\"H\": 1}, \"40\": {\"C\": 1}, \"41\": {\"C\": 1}, \"42\": {\"C\": 1}, \"43\": {\"C\": 1}, \"44\": {\"C\": 1}, \"45\": {\"C\": 1}, \"46\": {\"C\": 1}, \"47\": {\"C\": 1}, \"48\": {\"C\": 1}, \"49\": {\"C\": 1}, \"50\": {\"C\": 1}, \"51\": {\"C\": 1}, \"52\": {\"C\": 1}, \"53\": {\"C\": 1}, \"54\": {\"C\": 1}, \"55\": {\"C\": 1}, \"56\": {\"C\": 1}, \"57\": {\"C\": 1}, \"58\": {\"C\": 1}, \"59\": {\"C\": 1}, \"60\": {\"C\": 1}, \"61\": {\"C\": 1}, \"62\": {\"C\": 1}, \"63\": {\"C\": 1}, \"64\": {\"C\": 1}, \"65\": {\"C\": 1}, \"66\": {\"C\": 1}, \"67\": {\"C\": 1}, \"68\": {\"C\": 1}, \"69\": {\"C\": 1}, \"70\": {\"C\": 1}, \"71\": {\"C\": 1}, \"72\": {\"S\": 1}, \"73\": {\"S\": 1}, \"74\": {\"S\": 1}, \"75\": {\"S\": 1}, \"76\": {\"O\": 1}, \"77\": {\"O\": 1}, \"78\": {\"O\": 1}, \"79\": {\"O\": 1}, \"80\": {\"O\": 1}, \"81\": {\"O\": 1}, \"82\": {\"O\": 1}, \"83\": {\"O\": 1}, \"84\": {\"O\": 1}, \"85\": {\"O\": 1}, \"86\": {\"O\": 1}, \"87\": {\"O\": 1}, \"88\": {\"O\": 1}, \"89\": {\"O\": 1}, \"90\": {\"O\": 1}, \"91\": {\"O\": 1}, \"92\": {\"O\": 1}, \"93\": {\"O\": 1}, \"94\": {\"O\": 1}, \"95\": {\"O\": 1}, \"96\": {\"O\": 1}, \"97\": {\"O\": 1}, \"98\": {\"O\": 1}, \"99\": {\"O\": 1}, \"100\": {\"O\": 1}, \"101\": {\"O\": 1}, \"102\": {\"O\": 1}, \"103\": {\"O\": 1}, \"104\": {\"O\": 1}, \"105\": {\"O\": 1}, \"106\": {\"O\": 1}, \"107\": {\"O\": 1}, \"108\": {\"O\": 1}, \"109\": {\"O\": 1}, \"110\": {\"O\": 1}, \"111\": {\"O\": 1}, \"112\": {\"O\": 1}, \"113\": {\"O\": 1}, \"114\": {\"O\": 1}, \"115\": {\"O\": 1}}" energy=-771.6436157226562 free_energy=-771.6436157226562 stress="-0.017423052340745926 0.0012227930128574371 0.007343782112002373 0.0012227930128574371 -0.015340538695454597 0.005187937058508396 0.007343782112002373 0.005187937058508396 -0.008764190599322319" pbc="T T T"
Ho       4.48551082       1.11604915       8.84442051        0      -0.06794020      -0.39685982      -0.45334545
Ho       5.11448191       4.63609724       1.46904520        1      -0.00067164       0.15135284      -0.42769578
Ho       1.07524095      10.45479653       5.94634701        2      -0.38586989      -0.68611598       0.55476719
Ho       0.45711848       6.95681047      13.31313491        3      -0.16001232      -0.85818624       0.82742614
H        6.26166442       1.02571949       6.29859064        4       0.77599078      -0.52753466      -0.30262160
H        3.32665277       4.83267390      13.70712721        5      -0.35513240       0.04723902      -0.26289642
H       -0.72907995      10.51296786       8.51131529        6      -0.94729871       0.49355149       0.19055291
H        2.21690526       6.73216559       1.16377018        7      -1.89049125       0.39529645      -0.71124864
H        5.27109015       2.24169335       6.38457729        8      -0.10303481      -0.35755965      -0.08061878
H        4.33195798       3.50247387      13.73492516        9      -0.26537055       1.48258817       0.16229454
H        0.25676410       9.30267368       8.46633935       10       0.11115249       0.15104504      -0.31185499
H        1.19053156       8.00164510       1.07508449       11      -0.10024372      -0.36656740      -0.16604684
H        1.13891490      10.76999099       9.58818465       12       1.35660791       0.72403163       0.68797147
H        0.27397469       6.48294441       2.18036240       13       0.38676426       0.18605836      -0.44455221
H        4.35805040       0.76730118       5.28315229       14      -1.12922180      -1.07121253      -0.71170986
H        5.23380820       5.00841313      12.61199081       15       0.20079938       0.64813626       0.22443971
H        2.38064287      10.47549844      10.62721634       16       0.60569251      -1.33744597       0.79773539
H        5.94898495       6.90085152       3.28243905       17      -0.01812512       0.16564973       0.11043647
H        3.17865920       1.07639526       4.16119391       18       0.40018860      -0.77124220       0.39625949
H       -0.41799112       4.66697733      11.54162436       19      -0.17463507       0.86097455       0.33346811
H        4.63740994       1.71428806      11.88276438       20      -0.27661967      -0.16313760       0.39574009
H        4.93429128       4.04792024       4.51472630       21      -0.21334383      -0.17276762       0.30136335
H        0.90833461       9.86369922       2.87728115       22      -0.62552083      -0.02329412       1.28531504
H        0.57392749       7.42628202      10.23732575       23       1.01203966       0.20707580       2.03424168
H        5.74555682       2.33161592      10.96991314       24      -0.51996428      -0.59955019      -0.21834806
H        3.75647729       3.48495500       3.57667752       25      -1.80073690      -1.52313828       0.26029426
H       -0.23706379       9.22042423       3.76556200       26      -0.83529711      -0.68782043       0.18325439
H        1.77129321       8.10772753      11.19705695       27      -0.85910296      -0.66579002       0.03662513
H        4.25999509       5.45181540       9.74593230       28       0.00752635       0.72557962      -0.99659443
H        5.32153237       0.29719843       2.38913372       29       0.10003994      -0.26877493      -0.07247020
H        1.29376101       6.02499463       5.01378996       30       0.01097599      -0.18729573       0.78090417
H        0.18242301      11.23187497      12.45184693       31       0.02922603      -0.77704883      -1.24881721
H        3.93823349       7.95985411      10.06158667       32       0.03728078      -0.37362659       0.26010188
H        4.38217851       9.38190896       2.67386773       33      -0.13205567       0.70227957      -1.40292382
H        1.60890380       3.64948074       4.73468392       34      -0.11613696      -0.18540683      -0.01622191
H        1.14034536       2.11127884      12.15782526       35       0.10692064       0.14662793      -0.12933625
H        4.79767745       6.09096813       5.50586712       36       0.01070856      -0.14013359       0.27372169
H        3.49749997      11.23212832      12.95076848       37       0.13743310       0.20639884       0.12185623
H        0.73019896       5.47909450       9.24871515       38      -0.26506749       0.27981889       0.96735257
H        2.03739759       0.31877874       1.85593085       39       0.13141870      -0.01603150       0.21031943
C        4.73394532       4.10315200       7.44138096       40      -0.08638523       4.00773859      -3.65171409
C        4.83792045       1.62239187      -0.02230609       41       0.74315917       1.51285422       2.42749596
C        0.77579003       7.35542800       7.42963271       42       2.03929377       1.28710794      -4.92727232
C        0.69481991       9.91262978      14.75513292       43      -0.09111054      -0.54045939       2.37336707
C        4.48415541       5.60445688       7.59756419       44       0.43483740      -0.92353565       0.24959293
C        5.06856166       0.18219724       0.22455941       45       0.23559244      -0.16496873       1.09850037
C        1.05128547       5.92665097       7.18916655       46      -0.58411551       0.09424677       0.49678469
C        0.44318095      11.35517200      14.58422811       47       0.41466862       1.25584614      -0.80415702
C        4.27274581       6.15078980       8.84850607       48      -0.12654400      -1.62141395       2.52992058
C        4.03740473      11.17243296       1.52377585       49      -0.55000913       2.57487750      -1.11284280
C        1.28312148       5.39961301       5.93637674       50      -0.04745915      -0.47235221      -1.81174266
C        1.53076526       0.34264408      13.26750459       51       0.01065633      -0.13283858       2.63287878
C        4.08589766       7.49434442       9.09079670       52      -0.12454088       1.28593194      -1.30650604
C        4.23135921       9.84601434       1.63508739       53       0.22164384      -3.68213201       1.52213943
C        1.43101460       4.00896347       5.74506159       54       0.33308122       1.21349192      -0.25723183
C        1.34478288       1.69605084      13.13868630       55      -0.44204786       1.84388733       0.84216499
C        4.05183869       8.36155713       7.97871309       56       0.67501497      -0.63436002      -1.46546566
C        4.17162652       8.90938270       0.54518063       57       0.16173221       1.40995193      -0.11949698
C        1.47140261       3.15708790       6.82597705       58      -0.18576506      -0.54053032       1.48327804
C        1.31498943       2.59717142      14.28038210       59       0.26524383      -0.63591599      -2.20186806
C        4.35660995       7.79750041       6.64285574       60      -0.72488821       1.49122024       2.87518263
C        3.91442531       9.50671023      14.04985552       61       0.52384055      -1.25531209       2.40175104
C        1.21540201       3.69707940       8.13851101       62      -0.38877273       1.15088010      -1.39146018
C        1.59270924       2.01984919       0.72849133       63      -0.24798606       3.27614212      -0.55494791
C        4.57372306       6.44997962       6.51623903       64       0.14539421      -0.12265971      -1.65439582
C        3.75613395      10.87308520      13.95128783       65      -0.72219968      -0.04143560      -1.86316109
C        0.95762787       5.08920113       8.29149588       66       0.73033941      -2.11885929      -0.66797715
C        1.82607035       0.72212780       0.87368608       67       0.21522999      -3.99325705       0.16525677
C        3.78057743       9.82112699       8.15614912       68      -1.80655372       0.39509624      -0.83952558
C        4.51454112       7.43787213       0.74872305       69      -0.81632078       1.94239950       0.19180898
C        1.77556200       1.68984916       6.65107501       70      -0.53390491      -0.27252254      -0.95947540
C        1.04041099       4.08466382      14.07282896       71      -1.42293954      -1.22329116       0.73066926
S        4.51446789       8.93438771       5.33241693       72       1.69991529      -1.14170527      -0.01274502
S        3.76196892       8.40223051      12.73166786       73       0.22979429       0.58086824       0.03771883
S        1.00493498       2.58305029       9.47089022       74       0.77102101       1.80560660      -1.08786273
S        1.80187228       3.18568844       2.04180014       75      -2.47406554      -1.67852581       0.94109130
O        5.33564395       1.21460380       6.53081059       76      -1.07034087       0.81577021       0.20477547
O        4.24975650       4.56749571      13.89605938       77       0.90630746      -1.37120926       0.22075029
O        0.16192986      10.28265001       8.21628501       78       1.27274549      -0.20020372       0.23453942
O        1.23403647       6.98780550       0.85075476       79       2.23178005      -0.22940987       0.83724916
O        1.90541480      11.16659852      10.18721444       80      -2.03935051       0.69430375      -1.61419988
O       -0.45070637       6.16746354       2.76566777       81      -0.24650647      -0.42473811       0.54797167
O        3.60199942       0.32185311       4.67151416       82       1.09303963       2.10231256       0.01787709
O        5.96950869       5.42967601      12.05537250       83      -0.04014021      -1.40227032      -0.75228536
O        4.98270570       1.66779588      10.97176079       84       0.97409910       0.88301206       0.00473970
O        4.50843901       4.04405115       3.63278192       85       2.11705375       1.72885156      -0.49847138
O        0.50320948       9.83365698       3.82548059       86       1.50950360       0.70534855      -1.69394135
O        0.97262693       7.46831791      11.21585783       87      -0.00474182       0.69114405      -2.58561754
O        4.57264854       3.38812683       8.39702872       88      -0.30665272      -2.63738585       3.07677460
O        4.97972564       2.41796611       1.03199697       89      -0.45909679      -1.63927817      -2.09264040
O        0.97345122       8.16945676       6.37019009       90      -0.76117790      -1.64758778       2.27443123
O        0.58063828       9.12883661      13.76483528       91       0.14654577       0.68691909       0.38970232
O        5.04596184       3.75184552       6.23836425       92       0.04422814      -0.45647395       0.60390496
O        4.57894637       2.06915468      13.60198034       93       0.00344153      -0.45043910       0.27418983
O        0.54297024       7.76452346       8.56378369       94      -0.82285249       0.66891390       2.41682792
O        0.96731792       9.49342957       1.20517473       95      -0.37428313       0.72148889      -2.32230282
O        3.20217389       9.32756457       4.89860038       96      -2.27079344       0.88895059      -0.49036252
O        5.10266185       7.97926489      12.33959951       97       1.60672891      -0.45516014      -0.36328894
O        2.34419294       2.20271382       9.83207810       98       2.50425243      -1.02212727       0.73361003
O        0.40740613       3.63683181       2.42287966       99       0.13855325      -0.02362941       0.01927457
O        5.40036709      10.05037329       5.81943002      100       0.14700367       0.22110091      -0.09480426
O        2.89393482       7.29270971      13.15356742      101      -1.02331614      -1.47899890       0.69845927
O        0.14847062       1.52807168       8.98681969      102      -1.84657192      -2.42336059      -0.86562383
O        2.66236196       4.26055690       1.61288788      103       1.67881203       2.00693345      -0.81778395
O        5.18538506       8.12970729       4.23261242      104       0.23314562       0.25321189      -0.15443358
O        3.08804650       9.12686209      11.64350399      105      -0.74639177       0.94051069      -1.45641232
O        0.36383997       3.34973242      10.51872787      106      -1.30305874       1.20632696       2.09411740
O        2.39046681       2.41843743       3.17237782      107       0.43237960      -0.45286766       0.78504288
O        2.76170233      10.36297100       7.51492658      108       2.14273977      -0.59524846       1.41737533
O        5.48061354       6.94921545       0.14859319      109       1.44740689      -0.69657135      -1.04770899
O        2.76838934       1.17629721       7.26621765      110      -0.88593113      -0.05259591      -0.63753748
O        0.01974325       4.59028750      14.65242178      111       0.43283826      -0.00450924      -0.19105621
O        4.44707851      10.52571394       8.98408343      112      -0.61155450      -0.07084143      -0.10989307
O        3.87698803       6.72254252       1.56861343      113      -1.00301647      -0.28025883       0.79219574
O        1.06327047       0.97116057       5.81311206      114       1.57606840       1.01292789       1.26054668
O        1.69976038       4.79012910      13.27655254      115       0.52338201       0.43790385      -0.86488450
116
Lattice="6.78375485 0.0 0.0 -1.2875852660179892 11.54923614735086 0.0 -0.00034319350352938067 1.3632007929404963e-06 14.791845116018628" Properties=species:S:1:pos:R:3:spacegroup_kinds:I:1:forces:R:3 spacegroup="P 1" unit_cell=conventional occupancy="_JSON {\"0\": {\"Ho\": 1}, \"1\": {\"Ho\": 1}, \"2\": {\"Ho\": 1}, \"3\": {\"Ho\": 1}, \"4\": {\"H\": 1}, \"5\": {\"H\": 1}, \"6\": {\"H\": 1}, \"7\": {\"H\": 1}, \"8\": {\"H\": 1}, \"9\": {\"H\": 1}, \"10\": {\"H\": 1}, \"11\": {\"H\": 1}, \"12\": {\"H\": 1}, \"13\": {\"H\": 1}, \"14\": {\"H\": 1}, \"15\": {\"H\": 1}, \"16\": {\"H\": 1}, \"17\": {\"H\": 1}, \"18\": {\"H\": 1}, \"19\": {\"H\": 1}, \"20\": {\"H\": 1}, \"21\": {\"H\": 1}, \"22\": {\"H\": 1}, \"23\": {\"H\": 1}, \"24\": {\"H\": 1}, \"25\": {\"H\": 1}, \"26\": {\"H\": 1}, \"27\": {\"H\": 1}, \"28\": {\"H\": 1}, \"29\": {\"H\": 1}, \"30\": {\"H\": 1}, \"31\": {\"H\": 1}, \"32\": {\"H\": 1}, \"33\": {\"H\": 1}, \"34\": {\"H\": 1}, \"35\": {\"H\": 1}, \"36\": {\"H\": 1}, \"37\": {\"H\": 1}, \"38\": {\"H\": 1}, \"39\": {\"H\": 1}, \"40\": {\"C\": 1}, \"41\": {\"C\": 1}, \"42\": {\"C\": 1}, \"43\": {\"C\": 1}, \"44\": {\"C\": 1}, \"45\": {\"C\": 1}, \"46\": {\"C\": 1}, \"47\": {\"C\": 1}, \"48\": {\"C\": 1}, \"49\": {\"C\": 1}, \"50\": {\"C\": 1}, \"51\": {\"C\": 1}, \"52\": {\"C\": 1}, \"53\": {\"C\": 1}, \"54\": {\"C\": 1}, \"55\": {\"C\": 1}, \"56\": {\"C\": 1}, \"57\": {\"C\": 1}, \"58\": {\"C\": 1}, \"59\": {\"C\": 1}, \"60\": {\"C\": 1}, \"61\": {\"C\": 1}, \"62\": {\"C\": 1}, \"63\": {\"C\": 1}, \"64\": {\"C\": 1}, \"65\": {\"C\": 1}, \"66\": {\"C\": 1}, \"67\": {\"C\": 1}, \"68\": {\"C\": 1}, \"69\": {\"C\": 1}, \"70\": {\"C\": 1}, \"71\": {\"C\": 1}, \"72\": {\"S\": 1}, \"73\": {\"S\": 1}, \"74\": {\"S\": 1}, \"75\": {\"S\": 1}, \"76\": {\"O\": 1}, \"77\": {\"O\": 1}, \"78\": {\"O\": 1}, \"79\": {\"O\": 1}, \"80\": {\"O\": 1}, \"81\": {\"O\": 1}, \"82\": {\"O\": 1}, \"83\": {\"O\": 1}, \"84\": {\"O\": 1}, \"85\": {\"O\": 1}, \"86\": {\"O\": 1}, \"87\": {\"O\": 1}, \"88\": {\"O\": 1}, \"89\": {\"O\": 1}, \"90\": {\"O\": 1}, \"91\": {\"O\": 1}, \"92\": {\"O\": 1}, \"93\": {\"O\": 1}, \"94\": {\"O\": 1}, \"95\": {\"O\": 1}, \"96\": {\"O\": 1}, \"97\": {\"O\": 1}, \"98\": {\"O\": 1}, \"99\": {\"O\": 1}, \"100\": {\"O\": 1}, \"101\": {\"O\": 1}, \"102\": {\"O\": 1}, \"103\": {\"O\": 1}, \"104\": {\"O\": 1}, \"105\": {\"O\": 1}, \"106\": {\"O\": 1}, \"107\": {\"O\": 1}, \"108\": {\"O\": 1}, \"109\": {\"O\": 1}, \"110\": {\"O\": 1}, \"111\": {\"O\": 1}, \"112\": {\"O\": 1}, \"113\": {\"O\": 1}, \"114\": {\"O\": 1}, \"115\": {\"O\": 1}}" energy=-770.3936157226562 free_energy=-770.3936157226562 stress="-0.021456869319081306 0.0014194088289514184 0.0024890494532883167 0.0014194088289514184 -0.015264146029949188 0.0014852711465209723 0.0024890494532883167 0.0014852711465209723 -0.011956305243074894" pbc="T T T"
Ho       4.51132573       1.11582679       8.85817562        0      -0.10363882      -0.23776770      -0.49440333
Ho       5.10517859       4.61717556       1.47779700        1       0.32682377       0.20353879      -0.71522456
Ho       1.04051124      10.41069869       5.92704284        2       0.17141920      -0.03681348       0.97602034
Ho       0.48119008       6.93563918      13.34307834        3      -0.16640019      -0.80607355       0.55713814
H        6.24431612       0.99113111       6.28024820        4       0.56429392      -0.35983080      -0.16396295
H        3.36842972       4.81628130      13.66704263        5      -3.15599680       1.06609356      -0.88450861
H       -0.71195285      10.47809905       8.48423389        6      -0.15756220       0.22497419       0.01918717
H        2.17593268       6.70556998       1.13620776        7       0.00048763      -0.13163182      -0.07134533
H        5.24126369       2.20402587       6.35246247        8       0.00562150      -0.13267462       0.04956675
H        4.29327754       3.53847752      13.73555710        9       0.06624316       1.32059824       0.24647766
H        0.29247161       9.27249536       8.49503432       10       0.18995580      -0.48889443      -0.12640774
H        1.18937812       8.02114952       1.10500506       11       0.15887778      -1.34051061      -0.51805544
H        1.18720713      10.80000645       9.63576332       12      -0.22630432      -0.32448137      -0.44481987
H        0.26695847       6.51723650       2.14215379       13       0.02562160      -0.43246222      -0.25440112
H        4.37707730       0.72274716       5.31858003       14      -0.51080328      -0.27328455      -0.32012782
H        5.24563101       5.00058712      12.58511029       15       0.61240363       0.82210445      -0.01312287
H        2.41823559      10.43872656      10.63446640       16       0.35233411      -1.22320163       0.66384631
H        5.99606358       6.89122923       3.26397402       17      -0.15728298      -0.28808749       0.03982358
H        3.21816583       1.06143661       4.17909003       18       0.07902928       0.38006693      -0.10249652
H       -0.40296356       4.63832050      11.58688054       19       0.94092083      -1.20224822      -1.01445293
H        4.64112050       1.70232883      11.85232542       20      -0.73743862      -0.05330101       1.68282771
H        4.96266134       4.03945779       4.51838411       21       0.20973501      -0.22933942       1.22809601
H        0.95480911       9.90588813       2.91501289       22      -1.12766135      -0.39538735       1.80705023
H        0.60722575       7.46973157      10.28617805       23       0.42359859      -0.17565553       0.87434924
H        5.77314100       2.29283456      10.99364080       24       0.24413463       0.12609014      -0.09539342
H        3.73350444       3.44243467       3.58062042       25       0.49089143       0.07698247       0.51311058
H       -0.19638718       9.21130193       3.80879394       26      -2.06620574      -1.83145642      -0.18439737
H        1.80776988       8.06451859      11.20103809       27      -0.93338162      -0.71178246       0.14108254
H        4.27459009       5.40906907       9.71223452       28      -0.03674849       0.20678027       0.04482798
H        5.36905323       0.29224834       2.43506026       29       0.06672335      -1.44079661      -1.78148460
H        1.32459952       6.02486394       5.05340220       30       0.12076917      -0.73146516       1.28348351
H        0.16053063      11.19541771      12.40438852       31       0.20610666       0.43623060       0.96255374
H        3.92185978       7.93554709      10.07094908       32       0.13445231      -0.21266574       0.42731842
H        4.43121034       9.42549508       2.68829762       33      -0.19574653      -0.08347081      -0.41163367
H        1.65509090       3.65317566       4.77065443       34      -0.49215788       0.29485607       0.70388335
H        1.18455828       2.14340935      12.12175146       35       0.38095772      -1.14151752       1.99903762
H        4.81329923       6.12150216       5.53432189       36       0.73676330      -1.35609460      -2.89469051
H        3.51158032      11.23814934      12.98979173       37       0.31119686      -0.13053638       0.69750023
H        0.76486289       5.49575381       9.25308602       38      -0.13063045      -0.26569530       0.00347386
H        2.07595612       0.33610577       1.82736457       39       0.38673124      -0.62687957       1.07030427
C        4.77539352       4.13002902       7.39986979       40      -1.23974085       0.15368861       1.47787297
C        4.80943459       1.57420608      -0.02209723       41       1.19691658       4.15720081       1.67989755
C        0.82203665       7.35115716       7.39281579       42       1.00829792       1.37534356       0.13596353
C        0.67953362       9.87170898      14.79676984       43       0.60127842       1.45577395       0.46322024
C        4.50935612       5.58723473       7.61251577       44       0.66680431       0.13661525      -1.31733537
C        5.09037010       0.18601744       0.25847891       45      -0.07599486      -2.00727654      -0.81730503
C        1.08606755       5.92082668       7.22156764       46      -0.33448714       0.31354553      -1.03858423
C        0.47349825      11.40003296      14.61096055       47       0.06611151      -3.80596113      -1.93245983
C        4.28084714       6.12346235       8.88119641       48       0.14911550      -0.57802969       0.84477317
C        4.06063217      11.12888224       1.48677440       49      -0.32379717       3.97985315       3.14325476
C        1.32662434       5.35446508       5.98438466       50      -0.62015456       4.15031195      -2.62601542
C        1.52354809       0.30763781      13.30770358       51      -0.13530667      -0.87760115      -0.53126526
C        4.12388188       7.47549128       9.11517978       52      -0.61302662       1.27240932      -2.41296887
C        4.21064787       9.80896797       1.68161949       53       0.15819761      -3.19636154      -1.77799881
C        1.42095693       4.05137550       5.78895999       54       1.47812724      -2.97875381      -2.19563293
C        1.35490312       1.64999975      13.18057100       55      -0.90643418       3.09929585      -2.75570655
C        4.04143166       8.36113086       7.96455541       56       1.08877850      -0.90195733      -0.22325566
C        4.14863890       8.86817637       0.51729694       57       0.55849463       2.63197279       1.49250317
C        1.50806282       3.18619087       6.85376511       58      -0.39620376      -2.53681445       1.15866590
C        1.30447093       2.56519169      14.25148220       59       0.92599314      -0.05221924       0.75548267
C        4.37414580       7.83650650       6.65594326       60      -0.29143304      -2.02058649       2.00105643
C        3.95000014       9.46535981      14.00759748       61       0.24224128      -0.71079731       3.54271388
C        1.24023171       3.67218295       8.13848514       62      -0.65529466       1.60144651      -0.27464312
C        1.58787852       2.06694631       0.76504924       63       0.34802783      -0.73663414      -2.23999405
C        4.61271419       6.40685636       6.48120884       64      -1.23866713       3.50820446       3.66929221
C        3.78301982      10.83450307      13.99977714       65      -1.05584526       0.90914273      -3.42656898
C        0.97179901       5.07448069       8.26726932       66       0.38275576      -1.93180037       2.38476658
C        1.86664317       0.67942850       0.85133748       67      -0.46693802       2.72978544       2.21716261
C        3.77318348       9.83707185       8.14159194       68      -0.94920993      -1.10958874      -0.65626729
C        4.52920965       7.48203187       0.76028968       69       1.06265533      -2.53767753      -1.01428366
C        1.78631941       1.67348691       6.68960281       70      -0.11257441       0.27608889      -1.10102355
C        1.08742017       4.05237505      14.04121294       71      -3.39465427      -2.61123300       2.15957642
S        4.55283207       8.91406691       5.31732472       72      -0.07338734      -0.76737261      -0.23117346
S        3.80241843       8.36703673      12.68840775       73      -0.56094652       0.42120865       0.87683433
S        1.01848922       2.54019138       9.50350865       74       2.58591557       2.71194148      -1.37651336
S        1.83252823       3.19284593       2.05622626       75      -1.73140383      -0.36707076       0.10608184
O        5.32185857       1.19896371       6.53420426       76      -0.55640876       0.35509479       0.20119575
O        4.22776309       4.58829985      13.90914498       77       3.70197105      -2.36504459       0.74841499
O        0.21062422      10.23608828       8.23409996       78       0.25349602       0.69513780       0.05595222
O        1.26373151       6.96055187       0.84619358       79       0.11042336       1.39953041       0.49381024
O        1.94420005      11.11920370      10.16962155       80      -0.09686276       1.61706471      -0.22682568
O       -0.44406801       6.13714907       2.73483737       81       0.32238293       0.57392728       0.52586639
O        3.65059391       0.35927324       4.69133357       82       0.40247992      -0.13515612       0.17606339
O        6.01153056       5.38904257      12.02264771       83      -1.61370015       0.63796675       1.03817916
O        5.02558368       1.65801749      10.98854111       84       0.63032198      -0.02704400      -1.46584892
O        4.53970762       4.03176439       3.66180705       85      -0.61306578       0.14273605      -1.86672425
O        0.50489315       9.82341880       3.85855248       86       3.24561334       2.04624033      -2.34015346
O        1.00151753       7.43330959      11.22013234       87       0.53817278       0.98317432      -1.39968836
O        4.55254114       3.37124067       8.42717821       88       0.66172051       0.30901894      -1.10496807
O        4.95739336       2.40807976       1.05223320       89      -0.75360703      -2.43254042      -2.96298218
O        0.99821233       8.17872943       6.41811824       90      -0.43265420      -1.20036054       0.58404005
O        0.61464711       9.17144132      13.73858784       91      -0.10456564       0.11108569       1.02248478
O        5.07890457       3.73501263       6.23391685       92       0.18581209      -0.19671917       0.23458907
O        4.62339692       2.06084378      13.56590565       93      -0.04504827      -1.30663657       2.18433142
O        0.57366861       7.73236709       8.59384425       94      -0.28250113       0.05251816      -0.31718737
O        1.01518600       9.44987049       1.20005953       95      -0.66430241       0.37580979      -1.43655193