112
Lattice="9.44578801 0.0 0.0 -1.7202201663385043e-05 10.302221739985638 0.0 -0.9512689106757475 -1.034849544903339e-06 12.021503318729188" Properties=species:S:1:pos:R:3:spacegroup_kinds:I:1:forces:R:3 spacegroup="P 1" unit_cell=conventional occupancy="_JSON {\"0\": {\"Zn\": 1}, \"1\": {\"Zn\": 1}, \"2\": {\"Zn\": 1}, \"3\": {\"Zn\": 1}, \"4\": {\"H\": 1}, \"5\": {\"H\": 1}, \"6\": {\"H\": 1}, \"7\": {\"H\": 1}, \"8\": {\"H\": 1}, \"9\": {\"H\": 1}, \"10\": {\"H\": 1}, \"11\": {\"H\": 1}, \"12\": {\"H\": 1}, \"13\": {\"H\": 1}, \"14\": {\"H\": 1}, \"15\": {\"H\": 1}, \"16\": {\"H\": 1}, \"17\": {\"H\": 1}, \"18\": {\"H\": 1}, \"19\": {\"H\": 1}, \"20\": {\"H\": 1}, \"21\": {\"H\": 1}, \"22\": {\"H\": 1}, \"23\": {\"H\": 1}, \"24\": {\"H\": 1}, \"25\": {\"H\": 1}, \"26\": {\"H\": 1}, \"27\": {\"H\": 1}, \"28\": {\"H\": 1}, \"29\": {\"H\": 1}, \"30\": {\"H\": 1}, \"31\": {\"H\": 1}, \"32\": {\"H\": 1}, \"33\": {\"H\": 1}, \"34\": {\"H\": 1}, \"35\": {\"H\": 1}, \"36\": {\"H\": 1}, \"37\": {\"H\": 1}, \"38\": {\"H\": 1}, \"39\": {\"H\": 1}, \"40\": {\"C\": 1}, \"41\": {\"C\": 1}, \"42\": {\"C\": 1}, \"43\": {\"C\": 1}, \"44\": {\"C\": 1}, \"45\": {\"C\": 1}, \"46\": {\"C\": 1}, \"47\": {\"C\": 1}, \"48\": {\"C\": 1}, \"49\": {\"C\": 1}, \"50\": {\"C\": 1}, \"51\": {\"C\": 1}, \"52\": {\"C\": 1}, \"53\": {\"C\": 1}, \"54\": {\"C\": 1}, \"55\": {\"C\": 1}, \"56\": {\"C\": 1}, \"57\": {\"C\": 1}, \"58\": {\"C\": 1}, \"59\": {\"C\": 1}, \"60\": {\"C\": 1}, \"61\": {\"C\": 1}, \"62\": {\"C\": 1}, \"63\": {\"C\": 1}, \"64\": {\"C\": 1}, \"65\": {\"C\": 1}, \"66\": {\"C\": 1}, \"67\": {\"C\": 1}, \"68\": {\"C\": 1}, \"69\": {\"C\": 1}, \"70\": {\"C\": 1}, \"71\": {\"C\": 1}, \"72\": {\"C\": 1}, \"73\": {\"C\": 1}, \"74\": {\"C\": 1}, \"75\": {\"C\": 1}, \"76\": {\"C\": 1}, \"77\": {\"C\": 1}, \"78\": {\"C\": 1}, \"79\": {\"C\": 1}, \"80\": {\"C\": 1}, \"81\": {\"C\": 1}, \"82\": {\"C\": 1}, \"83\": {\"C\": 1}, \"84\": {\"N\": 1}, \"85\": {\"N\": 1}, \"86\": {\"N\": 1}, \"87\": {\"N\": 1}, \"88\": {\"N\": 1}, \"89\": {\"N\": 1}, \"90\": {\"N\": 1}, \"91\": {\"N\": 1}, \"92\": {\"N\": 1}, \"93\": {\"N\": 1}, \"94\": {\"N\": 1}, \"95\": {\"N\": 1}, \"96\": {\"O\": 1}, \"97\": {\"O\": 1}, \"98\": {\"O\": 1}, \"99\": {\"O\": 1}, \"100\": {\"O\": 1}, \"101\": {\"O\": 1}, \"102\": {\"O\": 1}, \"103\": {\"O\": 1}, \"104\": {\"O\": 1}, \"105\": {\"O\": 1}, \"106\": {\"O\": 1}, \"107\": {\"O\": 1}, \"108\": {\"O\": 1}, \"109\": {\"O\": 1}, \"110\": {\"O\": 1}, \"111\": {\"O\": 1}}" energy=-760.590576171875 free_energy=-760.590576171875 stress="-0.007147007156163454 -0.0010590077145025134 -0.006223991513252258 -0.0010590077145025134 -0.010795097798109055 -0.00396055169403553 -0.006223991513252258 -0.00396055169403553 -0.010476109571754932" pbc="T T T"
Zn       6.72035430       0.11516016       0.75122940        0      -0.19433075      -0.13318928      -0.06172116
Zn       2.27646326       5.26215942       5.31108862        1       0.13318436      -0.04093495      -0.15457261
Zn       1.75604133      10.23242303      11.32500032        2       0.59154320      -0.25903052      -0.05775237
Zn       6.22588114       5.07263746       6.76336897        3       0.07710899       0.08793358       0.03655721
H        4.86655245       3.08140382       9.56918077        4       0.12261772       0.53072339       0.14313978
H        3.16867676       8.21944319       8.51281737        5      -0.02262569       0.46334723      -0.12945038
H        3.59658343       7.22719216       2.46153850        6       0.23681164       1.27540278       0.99347430
H        5.35577743       2.06747944       3.55141979        7      -0.05813658       0.00018160       0.10624086
H        5.11517079       7.38445221       9.51459938        8      -0.02361260       0.08210827      -0.08952247
H        2.94611746       2.20151100       8.56876422        9       0.09737203       1.42098713       0.77632159
H        3.43420224       2.94972515       2.54500031       10      -0.01298854      -0.21780041       0.19603354
H        5.59201338       8.06463745       3.46750132       11       0.03014768       1.22778761       0.81235611
H        6.66754270       5.22501559       1.16309410       12       0.12965456      -0.03722545       0.62294471
H        2.35445357       0.09181415       4.88734485       13      -0.05071933       0.01259909      -0.36737466
H        1.87668713       5.10576045      10.89556548       14      -0.04475024      -0.01043927      -0.09840891
H        6.18848670      10.23123047       7.18460516       15      -0.01607420      -0.16536188       0.20002410
H        8.31432085       2.12538993       2.63462182       16      -0.75203919       1.41543865       0.31386638
H        0.65072386       7.31671012       3.38103530       17       0.18291186      -0.10230464       0.11373296
H        0.18773603       8.13824794       9.41425443       18      -0.05877185       0.51940227       0.16778818
H        7.84839087       3.01228749       8.66794985       19      -0.18112653      -0.27520272      -0.02250316
H       -0.03454822       8.70110676       1.06724931       20      -0.01691505       0.41786110       0.19487415
H        9.04125777       3.56291776       4.96418364       21       0.08184220      -0.64923668       0.46351421
H        8.56703547       1.59060018      10.99198783       22       0.05307234       1.16805041       0.71349108
H       -0.50850942       6.77340285       7.07758537       23       0.09801282      -0.61824048       0.38027337
H        1.99145147       9.58392921       2.73776611       24      -0.63693070       0.10770275      -0.15658288
H        7.01635797       4.44650639       3.30028873       25      -0.22248499      -0.18738174       0.06152161
H        6.52785891       0.73943196       9.32576900       26      -0.61114681       0.18570061      -0.17459714
H        1.52575380       5.88646156       8.73552046       27      -0.87871432      -0.24597523      -0.16291451
H        4.00527657       4.42587649       7.76202216       28      -0.20337731      -0.32252687       0.04493678
H        4.04451954       9.58818456      10.32475819       29       0.76787317      -1.08303332       0.21728948
H        4.51996885       5.86382510       4.31449571       30       1.14474952       1.75409532       0.20123215
H        4.48155560       0.76935034       1.74753619       31      -0.02718946      -0.09062544       0.03252077
H        4.05693284       6.07516127       7.70741906       32       0.51089287      -0.69674289       0.41998425
H        3.96641520       0.92122756      10.37301906       33      -0.25284719      -0.49410063      -0.17762384
H        4.46591996       4.25536221       4.36326055       34      -0.48296538       0.56344664      -0.22596964
H        4.54360779       9.39051401       1.69882289       35       0.60953128       1.13751602       0.30619323
H        1.19627095       1.54655135       3.62329829       36      -0.01158583       0.22283426       0.19340457
H        7.80491605       6.69688691       2.42554794       37      -0.41398939       0.64160359      -0.62152147
H        7.32276143       8.75145194       8.44259290       38       0.36769819       0.31647933       0.30020547
H        0.70457224       3.58316111       9.63797263       39      -0.29049599       0.46273440      -0.29129678
C        5.27051128       4.01181177      11.46553644       40       0.84901971       1.17598689       0.62083805
C        2.70250137       9.19114073       6.59752303       41       0.91652572      -0.74686438       1.40266526
C        3.17496660       6.29712649       0.60708831       42       0.45433858      -0.31343842       0.65953356
C        5.79728787       1.11907294       5.45991999       43      -0.43802190       0.35707861      -0.15401857
C        5.02386795       4.04241680      10.10005995       44      -0.43047112      -1.49819350      -0.18032393
C        3.04493459       9.17998090       7.98483171       45      -0.66955543      -0.13916440      -1.04789090
C        3.48797309       6.30859059       1.97395193       46      -0.41045234      -2.52692413      -0.84685910
C        5.46202936       1.12473719       4.09277720       47       0.50467712       0.91173661       0.78388041
C        4.91528339       5.23165335       9.40828891       48      -0.16747069       0.93554640      -0.66510636
C        3.12370266       0.09550229       8.67018341       49       0.85351872      -0.57310772       1.13256335
C        3.59546655       5.04906852       2.66469095       50       0.65312827       3.38714314       1.04175246
C        5.37533073      10.24487425       3.38311204       51      -0.17931569      -0.68802255      -0.25268361
C        5.15630809       6.45212930      10.07070238       52      -0.05888941      -0.18923080      -0.02305157
C        2.92036288       1.31367551       8.01580617       53      -0.70153975      -1.52284145      -1.34086120
C        3.37140474       3.88663275       2.00450636       54      -0.17046061      -1.82088685      -0.84740031
C        5.61753456       9.04266732       4.05571773       55       0.04316406      -1.40582776      -0.96612418
C        5.45581090       6.46989781      11.43633127       56      -0.13966887      -1.45399189      -0.21240571
C        2.57129007       1.30695576       6.64494463       57       0.93736541       0.05829728       0.65806150
C        3.09149034       3.83950251       0.62472824       58       0.02837790       2.30799603       0.35612968
C        5.92112405       9.03979232       5.42257485       59      -0.33357638      -1.89099145      -0.62453419
C        6.47281810       5.23085601       0.11075247       60      -0.43080413       0.30064020      -0.97538078
C        2.54480598       0.09372441       5.94842500       61      -0.54887390       0.52798533      -0.21826181
C        2.05567002       5.09203675      11.96649290       62      -0.11917168      -1.49858880      -0.12944025
C        5.97147751      10.19351167       6.12412679       63       0.33503503       2.48050785       0.67334104
C        6.36067142       2.73777994       0.22290923       64      -0.84992206       1.33493483      -1.36762440
C        2.63684055       7.89448855       5.83759841       65      -0.28275341       1.79374039      -1.43946040
C        2.16145131       7.54778000      11.85285260       66      -0.06598345       0.99912375      -0.54023266
C        5.88181876       2.43217648       6.23572174       67      -0.27263689      -1.74384964      -1.04097843
C        6.61922174       7.73106917       0.15295798       68      -0.55976629       0.28835377      -2.20658541
C        2.40417057       2.60071401       5.90876467       69      -0.78280747      -2.40175581      -1.11868107
C        1.91696538       2.59869035      11.92165439       70      -0.19303600      -0.98737615      -0.58115065
C        6.11043016       7.75490720       6.16611318       71       0.14429416      -0.28167599      -0.09606439
C        8.88067311       1.26716754       2.45952688       72       0.43936607      -1.56412387      -0.49445373
C        0.12586635       6.38830116       3.58096331       73      -0.86115396       0.87519401      -0.45659804
C       -0.33983355       9.08287711       9.60122760       74      -0.89172047      -0.24384694      -0.31760255
C        8.40983955       3.90602995       8.46289516       75      -0.41920328       0.70497018      -0.12087145
C        0.03807400       9.62495707       1.65449015       76      -0.94789350      -1.24367285      -0.94437599
C        8.96524263       4.45890679       4.40214065       77      -0.75250161       0.76224440      -0.74430972
C        8.49065773       0.72868030      10.40311554       78      -1.63493979      -1.22908139      -1.24854529
C       -0.42448113       5.84404806       7.67168324       79      -1.51424277       2.07946062      -1.66741323
C        1.01436991      10.02106088       2.47709674       80       1.83540702       1.14671540       1.26608145
C        7.94463967       4.90628076       3.59082336       81       0.11147559       0.13425884      -0.12543099
C        7.44270522       0.26468471       9.59078513       82       1.66760623       0.53277653       0.79342091
C        0.53827851       5.44404987       8.48409242       83       2.97155404      -0.76420850       1.75655222
N        4.59605528       5.21946930       8.01818071       84      -0.03245884       0.98155260      -0.26968578
N        3.46109265       0.05605630      10.06995520       85      -1.25992739       1.87353706      -0.44348615
N        3.93296983       5.11486058       4.06021496       86      -1.27392387      -2.86754990      -0.39942855
N        5.07808419      10.26831238       2.00490498       87      -0.46868774      -1.14006650      -0.70534325
N        8.48054322       0.27031385       1.65488752       88      -0.41450191       0.17319757      -0.22898695
N        0.50523799       5.42298858       4.39888938       89       0.87719768      -0.49715111       0.35111383
N        0.01673716      10.07631721      10.41224996       90       1.23186934      -0.16486281       0.20936605
N        8.00967251       4.92129908       7.67645401       91      -0.95220715      -0.77438903      -0.46124953
N        0.63402888       0.97448573       2.97144585       92       0.54478478      -0.84511423      -0.10826877
N        8.32671103       6.13567230       3.08787097       93       1.00630844      -1.22581005       1.02801609
N        7.87456123       9.37314410       9.09657521       94      -0.36155200      -0.97498274      -0.60563278
N        0.15174269       4.20979569       8.98733855       95       1.05485988      -0.38635844       0.56407720
O        6.45588174       2.78343365       1.44415345       96       0.36429173      -0.16107088       1.84096086
O        2.53323932       7.94149581       4.57275109       97       0.14595902      -0.38405138       0.94927096
O        2.04679802       7.53162884      10.59806949       98       0.05946583       0.04882126       0.68097645
O        6.01238811       2.39955606       7.46015407       99       0.18291891       0.09868682       1.28068459
O        5.33242297       1.65656178      11.55051057      100       0.30443108      -1.13862038      -0.37723744
O        2.65726806       6.81458490       6.52817431      101      -0.00187248      -1.04820657       0.40261286
O        3.18413594       8.67474890       0.52750711      102      -0.23447971      -0.43568954      -0.52970409
O        5.78511051       3.51605127       5.54208444      103       0.19292127       0.86760640      -0.32106596
O        6.92144187       7.69818556       1.33195475      104       0.64636135       0.10671753       2.68153477
O        2.09112641       2.54446264       4.67833956      105       0.32556859       0.57848543       0.38106209
O        1.60977335       2.61735859      10.69334824      106       0.14794599      -0.12470120       0.27309045
O        6.41428010       7.73645019       7.38740241      107      -0.01285537       0.24143413       0.08992605
O        5.50396575       8.85235983      11.52273531      108       0.04240484       0.07098605      -0.04889119
O        2.52165809       3.66797832       6.56811918      109       0.21820834       1.95798278       0.58695412
O        2.99068983       1.46101476       0.54466199      110       0.00844968       0.54989517      -0.02111065
O        5.95356650       6.64308963       5.51103562      111      -0.03070807      -0.13188806      -0.16976245
112
Lattice="9.44578801 0.0 0.0 -1.7202201663385043e-05 10.302221739985638 0.0 -0.9512689106757475 -1.034849544903339e-06 12.021503318729188" Properties=species:S:1:pos:R:3:spacegroup_kinds:I:1:forces:R:3 spacegroup="P 1" unit_cell=conventional occupancy="_JSON {\"0\": {\"Zn\": 1}, \"1\": {\"Zn\": 1}, \"2\": {\"Zn\": 1}, \"3\": {\"Zn\": 1}, \"4\": {\"H\": 1}, \"5\": {\"H\": 1}, \"6\": {\"H\": 1}, \"7\": {\"H\": 1}, \"8\": {\"H\": 1}, \"9\": {\"H\": 1}, \"10\": {\"H\": 1}, \"11\": {\"H\": 1}, \"12\": {\"H\": 1}, \"13\": {\"H\": 1}, \"14\": {\"H\": 1}, \"15\": {\"H\": 1}, \"16\": {\"H\": 1}, \"17\": {\"H\": 1}, \"18\": {\"H\": 1}, \"19\": {\"H\": 1}, \"20\": {\"H\": 1}, \"21\": {\"H\": 1}, \"22\": {\"H\": 1}, \"23\": {\"H\": 1}, \"24\": {\"H\": 1}, \"25\": {\"H\": 1}, \"26\": {\"H\": 1}, \"27\": {\"H\": 1}, \"28\": {\"H\": 1}, \"29\": {\"H\": 1}, \"30\": {\"H\": 1}, \"31\": {\"H\": 1}, \"32\": {\"H\": 1}, \"33\": {\"H\": 1}, \"34\": {\"H\": 1}, \"35\": {\"H\": 1}, \"36\": {\"H\": 1}, \"37\": {\"H\": 1}, \"38\": {\"H\": 1}, \"39\": {\"H\": 1}, \"40\": {\"C\": 1}, \"41\": {\"C\": 1}, \"42\": {\"C\": 1}, \"43\": {\"C\": 1}, \"44\": {\"C\": 1}, \"45\": {\"C\": 1}, \"46\": {\"C\": 1}, \"47\": {\"C\": 1}, \"48\": {\"C\": 1}, \"49\": {\"C\": 1}, \"50\": {\"C\": 1}, \"51\": {\"C\": 1}, \"52\": {\"C\": 1}, \"53\": {\"C\": 1}, \"54\": {\"C\": 1}, \"55\": {\"C\": 1}, \"56\": {\"C\": 1}, \"57\": {\"C\": 1}, \"58\": {\"C\": 1}, \"59\": {\"C\": 1}, \"60\": {\"C\": 1}, \"61\": {\"C\": 1}, \"62\": {\"C\": 1}, \"63\": {\"C\": 1}, \"64\": {\"C\": 1}, \"65\": {\"C\": 1}, \"66\": {\"C\": 1}, \"67\": {\"C\": 1}, \"68\": {\"C\": 1}, \"69\": {\"C\": 1}, \"70\": {\"C\": 1}, \"71\": {\"C\": 1}, \"72\": {\"C\": 1}, \"73\": {\"C\": 1}, \"74\": {\"C\": 1}, \"75\": {\"C\": 1}, \"76\": {\"C\": 1}, \"77\": {\"C\": 1}, \"78\": {\"C\": 1}, \"79\": {\"C\": 1}, \"80\": {\"C\": 1}, \"81\": {\"C\": 1}, \"82\": {\"C\": 1}, \"83\": {\"C\": 1}, \"84\": {\"N\": 1}, \"85\": {\"N\": 1}, \"86\": {\"N\": 1}, \"87\": {\"N\": 1}, \"88\": {\"N\": 1}, \"89\": {\"N\": 1}, \"90\": {\"N\": 1}, \"91\": {\"N\": 1}, \"92\": {\"N\": 1}, \"93\": {\"N\": 1}, \"94\": {\"N\": 1}, \"95\": {\"N\": 1}, \"96\": {\"O\": 1}, \"97\": {\"O\": 1}, \"98\": {\"O\": 1}, \"99\": {\"O\": 1}, \"100\": {\"O\": 1}, \"101\": {\"O\": 1}, \"102\": {\"O\": 1}, \"103\": {\"O\": 1}, \"104\": {\"O\": 1}, \"105\": {\"O\": 1}, \"106\": {\"O\": 1}, \"107\": {\"O\": 1}, \"108\": {\"O\": 1}, \"109\": {\"O\": 1}, \"110\": {\"O\": 1}, \"111\": {\"O\": 1}}" energy=-759.1525268554688 free_energy=-759.1525268554688 stress="-0.008399521932005882 -0.004386930726468563 -0.007277925964444876 -0.004386930726468563 -0.02137584611773491 -0.007202723994851112 -0.007277925964444876 -0.007202723994851112 -0.021885953843593597" pbc="T T T"
Zn       6.73970244       0.13492748       0.77162162        0      -0.63273370      -0.22822540      -0.26134413
Zn       2.29680420       5.26077662       5.34023599        1      -0.30392176      -0.11008091      -0.33616573
Zn       1.77785320      10.25799030      11.34212404        2       0.32448274      -0.88734925      -0.40832618
Zn       6.24176851       5.10015014       6.78299617        3      -0.17145839      -0.25055405      -0.16377345
H        4.85832980       3.05306659       9.59625627        4       0.19289574       0.83040857       0.20874496
H        3.18195562       8.19204151       8.50758060        5      -0.10900328       1.45907712      -0.31329858
H        3.58732903       7.21436142       2.43472146        6       0.23621592       0.91407955       0.85577911
H        5.36541260       2.05332380       3.55535383        7      -0.15010844       0.30001932       0.14859229
H        5.10989193       7.36936120       9.48935133        8       0.04182887       0.56144345      -0.15336268
H        2.93323662       2.17674610       8.58885085        9       0.12432072       1.71734881       0.98054188
H        3.46037026       2.92470597       2.53398401       10      -0.09210466      -0.13698781       0.18795675
H        5.61890982       8.07395314       3.43992288       11      -0.14146537       1.47006845       1.27452171
H        6.67652645       5.21169442       1.16086865       12      -0.03762863      -0.08958795      -0.10461727
H        2.37547153       0.06627525       4.87987083       13      -0.18452194       0.14359237      -0.86525953
H        1.88614661       5.12718516      10.90267613       14      -0.01638103      -0.14824316      -0.24797884
H        6.21756263      10.22415440       7.16828625       15      -0.01191394      -0.35127130       0.03860527
H        8.31543519       2.09970626       2.60752158       16      -0.39869589       1.22617602       0.47579080
H        0.65614262       7.28816794       3.36866643       17       0.15022559       0.01770216       0.02324429
H        0.20744856       8.13262763       9.41195113       18      -0.21706308       0.74473447       0.17692173
H        7.87135575       3.01180712       8.64794092       19       0.14161722       0.21671535      -0.00993358
H       -0.01248350       8.69713373       1.04168318       20       0.02235574       0.84243888       0.36707637
H        9.07026329       3.54057689       4.94481546       21      -0.02117357      -0.46755666       0.34346241
H        8.58725577       1.56164460      10.96373090       22      -0.07656828       1.81140304       1.08025026
H       -0.50248304       6.76217056       7.09662420       23       0.11073674      -0.42030561       0.12463365
H        2.01377112       9.60033701       2.72358081       24      -0.74086016       0.15720275      -0.13400064
H        7.03832054       4.45051500       3.28939265       25       0.04481748       0.00050983       0.15501568
H        6.50767064       0.72393973       9.31742833       26       0.25627279      -0.06130479       0.06688603
H        1.52811985       5.88148547       8.71189300       27      -1.27931523      -0.43022561      -0.17051966
H        4.02960043       4.44680762       7.79081805       28      -0.65281361      -0.70461202      -0.39377916
H        4.03210615       9.55994631      10.34851410       29       0.15695721      -0.26146382      -0.06735073
H        4.50770539       5.84671231       4.32709152       30       0.70778990       1.34250355       0.06814179
H        4.49803758       0.75478860       1.77546577       31      -0.79979557       0.80669439      -0.36721331
H        4.06932510       6.10258218       7.73544889       32       0.31003568      -0.64658737       0.34553805
H        3.96741238       0.89381784      10.39705838       33       0.12561834       0.13288891      -0.07685138
H        4.48183126       4.26002754       4.33709082       34      -0.59894264       0.28809953      -0.09682784
H        4.55770554       9.37866282       1.72799871       35       0.28126895       0.86520642      -0.13028745
H        1.17176667       1.51814793       3.64080575       36       0.09069654       0.42470905       0.37876946
H        7.81990075       6.70512169       2.41120795       37      -0.34576577       0.12395461      -0.24073032
H        7.34531788       8.73346556       8.46678321       38       0.12702443       0.35090315       0.10946687
H        0.70405975       3.57225413       9.63538491       39      -0.05881695       0.50963885      -0.12996863
C        5.27208308       4.00996555      11.47772987       40       0.45322776       0.42705822      -0.60976595
C        2.70630775       9.16349565       6.60564993       41       0.76723415       1.16405225       0.98418391
C        3.15944538       6.31894361       0.59504719       42       0.96129823      -2.63845921       1.29101741
C        5.80839642       1.10320049       5.48053772       43      -0.76555783       0.85876954      -1.41678166
C        5.03106951       4.03394714      10.11013320       44      -0.62929958      -2.20111609      -0.39980131
C        3.05453112       9.20220105       7.99619380       45      -0.74290341      -2.83296490      -1.97878432
C        3.48685636       6.27985755       1.95055282       46      -0.24551138      -1.17742920       0.54653895
C        5.44453074       1.12905413       4.11829431       47       0.82319444      -0.63657331      -0.21139023
C        4.91393715       5.20404334       9.41853867       48       0.12641938       2.96884418      -0.65209281
C        3.12481131       0.09963904       8.64108174       49       1.44261765      -0.90480220       4.06959963
C        3.60807078       5.06081209       2.68461264       50      -0.18439056       1.35243559      -1.28188348
C        5.39534784      10.21882511       3.35585207       51      -0.61448663       1.69453812       1.14003384
C        5.17252726       6.47096040      10.07047100       52      -0.13776492      -2.31740093       0.58386028
C        2.93404937       1.29331204       8.04400157       53      -1.29571271      -0.27504894      -3.47890925
C        3.37283759       3.86171641       1.99212292       54       0.31051975      -0.40087578       1.06940007
C        5.59525807       9.05781097       4.06774952       55       0.34484747      -2.78416157      -2.47100544
C        5.47958513       6.44068047      11.45140473       56      -0.42733166       0.18040711      -1.96355808
C        2.57601910       1.29417707       6.64469615       57       1.16061926       0.01696301       1.31139088
C        3.07644983       3.82728526       0.65204307       58      -0.03952729       2.50758266      -1.52618504
C        5.91198742       9.05582749       5.41143751       59      -0.39032412      -3.87247324      -0.37506056
C        6.46594492       5.20544744       0.08776885       60       0.24692151       0.88627994       1.40168715
C        2.53998694       0.09458605       5.93018597       61      -0.12194634      -0.60152721       1.27876079
C        2.07547574       5.10574533      11.96778163       62      -0.57121557      -2.05707455       0.08361100
C        5.99074396      10.16952268       6.10414144       63       0.51328295       3.98943901       2.39419889
C        6.34708337       2.73862894       0.19612438       64      -0.47225702       1.85212612       0.03840846
C        2.63345202       7.89567713       5.82242572       65      -0.07656476       0.49923041       1.70785713
C        2.18993415       7.52592269      11.87865557       66      -0.88732654       2.30854654      -2.77044964
C        5.89228767       2.40460287       6.25135916       67      -0.70219934      -0.05592144      -4.12875509
C        6.64018646       7.71777834       0.13938637       68      -0.41900456       0.83165622      -0.02290518
C        2.42676787       2.58988360       5.93205100       69      -1.10965896      -2.77692366      -2.13305902
C        1.90386054       2.58227868      11.91543007       70       0.04502814      -0.38559937      -0.42093414
C        6.09311254       7.76735811       6.18282552       71       0.13501851      -1.03239942      -2.24072552
C        8.90511098       1.23817393       2.46917251       72      -2.31362224      -0.03242415      -1.00199127
C        0.12626988       6.36454625       3.56086237       73      -0.82847989       1.79232693      -0.46854842
C       -0.32557825       9.08622530       9.59257162       74      -0.76971781      -0.12113705       0.05510996
C        8.42902391       3.93284642       8.46064170       75      -1.13434935      -1.22907305       0.77360451
C        0.05339759       9.64121322       1.62521642       76      -0.91866189      -1.32501817      -0.72208261
C        8.97837153       4.44375578       4.38774637       77      -0.93606627       0.89570540      -0.57415295
C        8.46256130       0.70340819      10.40605018       78       0.11216140      -0.84516382      -0.78243273
C       -0.42011106       5.81988305       7.65041698       79      -1.42089093       2.28092337      -1.06702042
C        1.02843387      10.03582983       2.47949238       80       1.12934756       0.02247962       0.31347379
C        7.96861855       4.93240676       3.58110077       81      -1.63543916      -2.67126989       0.37958544
C        7.46853228       0.27748790       9.57206564       82      -0.70739013       0.42590308       0.24398318
C        0.52457288       5.41526162       8.49098561       83       4.44614220       1.48326802       0.91087079
N        4.59785135       5.24252450       8.02960471       84       0.46848810       0.73076296       0.15581292
N        3.45005441       0.06030294      10.09528420       85      -1.04279733       0.29978985      -1.21291316
N        3.90832434       5.09606244       4.04791677       86      -0.11223951      -1.85035872       0.65490198
N        5.07000029      10.26314985       1.98956818       87       0.77686208      -1.93047333       0.08488970
N        8.45602977       0.28616582       1.63803761       88       1.60713267      -0.73029560       0.16151133
N        0.48276130       5.43160906       4.39414021       89       2.28046846      -1.20265126       1.00777948
N        0.03470497      10.08553439      10.41311748       90       0.53210598      -0.62656379      -0.25238541
N        7.99129101       4.92258051       7.69777812       91      -0.40714228      -0.36337778      -0.86217111
N        0.60919046       0.94661462       2.99664538       92       2.07259035      -0.65144318       0.52750587
N        8.31295982       6.11419831       3.09432876       93       1.59911466       1.19247210      -0.37412623
N        7.87035554       9.37547046       9.10734681       94       0.62543964      -1.56126726      -0.77529752
N        0.17839961       4.22739783       8.99933211       95      -0.31865674      -1.79942894       0.50703532
O        6.46159355       2.76247789       1.41553633       96       0.40010568       0.20972401       2.62696695
O        2.53220698       7.95233090       4.59862835       97      -0.00867872      -0.50606209      -1.12638378
O        2.07311106       7.52373737      10.60532013       98       0.28729489      -0.17219320       1.11386836
O        6.04076978       2.37126718       7.43437942       99       0.57239532       0.04916336       4.18240166
O        5.32966906       1.66146965      11.57599649      100       0.06094329      -2.40336323      -2.00920749
O        2.64304446       6.79584172       6.55741023      101       0.01851558       0.04959181      -0.64927757