96
Lattice="7.79624515 0.0 0.0 6.460790638849395e-05 19.812461779894658 0.0 -8.057007841732163e-06 -0.00045645194496357253 19.81255558474037" Properties=species:S:1:pos:R:3:spacegroup_kinds:I:1:forces:R:3 spacegroup="P 1" unit_cell=conventional occupancy="_JSON {\"0\": {\"Zn\": 1}, \"1\": {\"Si\": 1}, \"2\": {\"H\": 1}, \"3\": {\"H\": 1}, \"4\": {\"H\": 1}, \"5\": {\"H\": 1}, \"6\": {\"H\": 1}, \"7\": {\"H\": 1}, \"8\": {\"H\": 1}, \"9\": {\"H\": 1}, \"10\": {\"H\": 1}, \"11\": {\"H\": 1}, \"12\": {\"H\": 1}, \"13\": {\"H\": 1}, \"14\": {\"H\": 1}, \"15\": {\"H\": 1}, \"16\": {\"H\": 1}, \"17\": {\"H\": 1}, \"18\": {\"H\": 1}, \"19\": {\"H\": 1}, \"20\": {\"H\": 1}, \"21\": {\"H\": 1}, \"22\": {\"H\": 1}, \"23\": {\"H\": 1}, \"24\": {\"H\": 1}, \"25\": {\"H\": 1}, \"26\": {\"C\": 1}, \"27\": {\"C\": 1}, \"28\": {\"C\": 1}, \"29\": {\"C\": 1}, \"30\": {\"C\": 1}, \"31\": {\"C\": 1}, \"32\": {\"C\": 1}, \"33\": {\"C\": 1}, \"34\": {\"C\": 1}, \"35\": {\"C\": 1}, \"36\": {\"C\": 1}, \"37\": {\"C\": 1}, \"38\": {\"C\": 1}, \"39\": {\"C\": 1}, \"40\": {\"C\": 1}, \"41\": {\"C\": 1}, \"42\": {\"C\": 1}, \"43\": {\"C\": 1}, \"44\": {\"C\": 1}, \"45\": {\"C\": 1}, \"46\": {\"C\": 1}, \"47\": {\"C\": 1}, \"48\": {\"C\": 1}, \"49\": {\"C\": 1}, \"50\": {\"C\": 1}, \"51\": {\"C\": 1}, \"52\": {\"C\": 1}, \"53\": {\"C\": 1}, \"54\": {\"C\": 1}, \"55\": {\"C\": 1}, \"56\": {\"C\": 1}, \"57\": {\"C\": 1}, \"58\": {\"C\": 1}, \"59\": {\"C\": 1}, \"60\": {\"C\": 1}, \"61\": {\"C\": 1}, \"62\": {\"C\": 1}, \"63\": {\"C\": 1}, \"64\": {\"C\": 1}, \"65\": {\"C\": 1}, \"66\": {\"C\": 1}, \"67\": {\"C\": 1}, \"68\": {\"C\": 1}, \"69\": {\"C\": 1}, \"70\": {\"C\": 1}, \"71\": {\"C\": 1}, \"72\": {\"C\": 1}, \"73\": {\"C\": 1}, \"74\": {\"N\": 1}, \"75\": {\"N\": 1}, \"76\": {\"N\": 1}, \"77\": {\"N\": 1}, \"78\": {\"N\": 1}, \"79\": {\"N\": 1}, \"80\": {\"N\": 1}, \"81\": {\"N\": 1}, \"82\": {\"O\": 1}, \"83\": {\"O\": 1}, \"84\": {\"O\": 1}, \"85\": {\"O\": 1}, \"86\": {\"O\": 1}, \"87\": {\"O\": 1}, \"88\": {\"O\": 1}, \"89\": {\"O\": 1}, \"90\": {\"F\": 1}, \"91\": {\"F\": 1}, \"92\": {\"F\": 1}, \"93\": {\"F\": 1}, \"94\": {\"F\": 1}, \"95\": {\"F\": 1}}" energy=-686.7036743164062 free_energy=-686.7036743164062 stress="-0.00022081339557189494 7.028255367913516e-06 -2.0265191778889857e-05 7.028255367913516e-06 -0.0006149740074761212 2.0183018932584673e-05 -2.0265191778889857e-05 2.0183018932584673e-05 -0.0005333884037099779" pbc="T T T"
Zn       7.79629051      19.81199476      19.81255128        0       0.00084128       0.00429019      -0.00704864
Si       3.89813113      19.81204041      19.81249607        1      -0.04844418       0.03938024      -0.08240481
H       -0.00066873       8.63967908       3.36719866        2      -0.00107380      -0.00809944      -0.00092570
H       -0.00044231      11.17290044      16.44430509        3       0.00197742       0.01936542      -0.01593664
H       -0.00064312      16.44483444       8.63916609        4      -0.00231089       0.00535122      -0.00751897
H       -0.00054373       3.36776055      11.17236765        5      -0.00232258      -0.01230422       0.00096139
H        7.79590747      11.17319979       3.36692594        6      -0.00051384      -0.00187610      -0.01426761
H        7.79598707       8.63949506      16.44442750        7       0.00016855      -0.00971625      -0.01440622
H        7.79567619       3.36733285       8.63920133        8      -0.00212969       0.03113572      -0.02533144
H       -0.00063498      16.44516657      11.17249635        9      -0.00068825      -0.01177762       0.01426771
H        5.71797292       2.26420092      -0.00047947       10       0.02192049       0.02404932      -0.00082435
H        5.63799950       4.76190534      19.81313749       11      -0.03406295      -0.01916100       0.00014415
H        5.71736916      17.54858371      -0.00087726       12      -0.01073366       0.00370202       0.00098763
H        5.63802538      15.05038489       0.00049269       13      -0.03126369       0.01970039      -0.00500271
H        5.71809316       0.00042207       2.26304775       14      -0.01343289      -0.00051613      -0.00361671
H        5.63853049      19.81308055       4.76190234       15      -0.04989944      -0.00558278      -0.00902176
H        5.71758144      19.81207512      17.54743756       16       0.00946660       0.00048015      -0.01037593
H        5.63916443       0.00118695      15.05019486       17      -0.06836942      -0.00322778      -0.00738233
H        2.07719916      17.54856803      -0.00071657       18      -0.03742785      -0.01598935       0.00037102
H        2.15466191      15.05092931      -0.00159151       19       0.12235062      -0.03453234       0.00013624
H        2.07704032       2.26451067      -0.00075191       20      -0.01933210       0.01437403      -0.00277595
H        2.15455709       4.76146005      19.81163062       21       0.11043790       0.03250836      -0.00277487
H        2.07718080       0.00034602       2.26307422       22      -0.03824827      -0.00084487       0.01864418
H        2.15483406      19.81310230       4.76061804       23       0.08555163      -0.00303434       0.01012135
H        2.07777131      19.81240790      17.54775035       24      -0.05311196      -0.00115117      -0.03303142
H        2.15562435      -0.00072465      15.04911463       25       0.07950924       0.00363388      -0.00851388
C        7.79640098       7.01685094       1.25781809       26      -0.01036013      -0.00185560      -0.00599155
C       -0.00037154       8.50076656       1.23482898       27      -0.00463325      -0.01670927       0.03088109
C       -0.00124359       9.20293056       2.43422302       28       0.00963239      -0.01744693      -0.06082049
C       -0.00046421      12.79585497      18.55312609       29      -0.00522947      -0.01926935       0.13739608
C       -0.00131155      11.31291267      18.57565210       30       0.01258178      -0.01697031      -0.00159549
C       -0.00004385      10.61040845      17.37709826       31      -0.00919805      -0.01814424       0.03979614
C        0.00042197      18.55432756       7.01688937       32      -0.01437253       0.03277406      -0.02801677
C       -0.00137458      18.57561020       8.49971047       33       0.00928570       0.09816961      -0.01073793
C       -0.00169921      17.37844881       9.20174569       34       0.00639777      -0.02562830       0.05129145
C       -0.00039203       1.25953004      12.79446164       35      -0.00818486      -0.00843036       0.06046490
C       -0.00031348       1.23640682      11.31155322       36      -0.00891150       0.00368282       0.03243881
C        7.79478982       2.43421136      10.60918634       37       0.01015094       0.01643720      -0.04113234
C       -0.00123661      12.79528911       1.25808536       38       0.00959080       0.02961895      -0.08781493
C       -0.00152240      11.31278897       1.23514848       39       0.00690307      -0.02721304       0.00477490
C       -0.00065660      10.60948107       2.43354781       40      -0.00782636       0.03642015      -0.01014987
C       -0.00106855       7.01719784      18.55354194       41       0.01408944      -0.01023105       0.07417193
C       -0.00037596       8.50043590      18.57556324       42      -0.00833143       0.00149101      -0.02295493
C       -0.00041094       9.20315293      17.37673624       43       0.00346895      -0.00104359       0.05845174
C        7.79568080       1.25892983       7.01556557       44      -0.00994951      -0.08708450       0.02981658
C        7.79510718       1.23714600       8.49961620       45       0.00756316      -0.04411296      -0.05520549
C        7.79501308       2.43488355       9.20126269       46      -0.00021236      -0.02639988       0.07803580
C        7.79504092      18.55350309      12.79593278       47      -0.00482529       0.10622126      -0.06092653
C        7.79427032      18.57635243      11.31125413       48       0.00837762       0.00218766       0.06098267
C       -0.00124130      17.37792539      10.60968419       49      -0.00595227       0.04043695      -0.04991940
C        7.79500147       4.93771330      19.81156606       50       0.01119889      -0.13085169       0.00104150
C       -0.00110080       9.19550684      19.81136329       51       0.01044088      -0.08504919       0.01379730
C       -0.00125593      14.87570336      -0.00072097       52       0.03066589       0.12175752      -0.00300525
C       -0.00070377      10.61785757      -0.00100775       53      -0.01184779       0.09075979       0.00021633
C       -0.00031231      19.81342098       4.93599039       54      -0.05277815      -0.03533734      -0.09375152
C       -0.00053377      19.81360073       9.19365583       55      -0.01216713      -0.05261552       0.01197155
C       -0.00020904       0.00046130      14.87416491       56      -0.03858665       0.00590669       0.09950469
C       -0.00142623       0.00052249      10.61789609       57       0.00635896      -0.01660873      -0.03807986
C        6.63525535       2.85096985      -0.00086827       58      -0.00649846      -0.13418183       0.00027440
C        6.59244366       4.23795677      19.81228302       59      -0.06547554       0.17466372      -0.00201410
C        6.63391638      16.96316992      -0.00057149       60       0.05745819       0.06817245      -0.00690711
C        6.59225193      15.57489759      -0.00160782       61      -0.07375415      -0.14068112       0.01525202
C        6.63476014      19.81242009       2.84828008       62       0.02298370       0.00283593      -0.01150441
C        6.59223129      19.81150910       4.23790614       63      -0.02733141       0.01617112       0.07356583
C        6.63532130      -0.00031781      16.96246043       64      -0.01600227       0.00318896       0.01272854
C        6.59296316      -0.00022145      15.57252769       65      -0.02475859       0.00549147      -0.04675231
C        1.15876503      16.96320807      -0.00049576       66      -0.00198659       0.02303824      -0.00593609
C        1.20264036      15.57265400      -0.00142921       67      -0.05847384       0.02942493       0.00584246
C        1.15947301       2.85029136      -0.00161272       68      -0.03916153      -0.03474329       0.00091401
C        1.20185992       4.24012664      19.81064302       69      -0.01015046      -0.00929562       0.00578577
C        1.15882470      19.81243075       2.84852898       70      -0.00665110       0.00608134      -0.06840687
C        1.20176502      19.81222806       4.23792104       71       0.03674103       0.00888947       0.03929029
C        1.15907510      -0.00028786      16.96147562       72      -0.00563955       0.00900131       0.08125117
C        1.20224195       0.00057466      15.57155369       73       0.03675301      -0.00969011       0.00092619
N        7.79491679       2.16469637      -0.00148294       74       0.04403019      -0.01657611       0.00244218
N        7.79607188       6.37998218      19.81226181       75      -0.01493078      -0.08689532       0.00488357
N       -0.00179002      17.64862277      -0.00034524       76       0.02116830       0.02340680       0.00178084
N        0.00020166      13.43367646      -0.00040765       77      -0.02226546       0.04802382       0.00115113
N       -0.00180325      19.81344009       2.16282288       78       0.04052898      -0.00805162      -0.02317160
N       -0.00069786      19.81156565       6.37897024       79       0.00940726       0.07523370      -0.08705974
N       -0.00195745      19.81280141      17.64810248       80       0.08285005      -0.00871967       0.00843400
N       -0.00002750       0.00073365      13.43166716       81      -0.00174952       0.00038148       0.09257412
O        7.79557697       6.36148082       2.29653182       82       0.00379996       0.09331567      -0.08312463
O        7.79552477      13.45140190      17.51716269       83       0.00101112      -0.01827479      -0.05611517
O        7.79672210      17.51706906       6.36095057       84       0.00447247       0.00848996       0.05838135
O       -0.00227314       2.29799778      13.45077822       85       0.00454576      -0.10278462      -0.10977319
O       -0.00043668      13.45092706       2.29513111       86      -0.00454090      -0.05147910       0.00191410
O        7.79608800       6.35961247      17.51764854       87      -0.00550944       0.06938328      -0.00088187
O        7.79450361       2.29649481       6.36095596       88       0.00369315      -0.01659197       0.03831024
O        7.79387202      17.51667031      13.45110841       89       0.00201945      -0.00252164      -0.03756773
F        2.13077248       0.00048649      -0.00169126       90       0.05194175       0.00040440       0.00343550
F        5.66127328      19.81236939      19.81200156       91      -0.03452928       0.00026682      -0.00304366
F        3.89541171       1.20332239       1.20007363       92       0.00662964       0.01644089       0.02236512
F        3.89519458      18.61015317      18.60826569       93       0.01113163       0.00116265       0.00382819
F        3.89562907      18.61197402       1.19983063       94       0.00594250      -0.04209753       0.04364362
F        3.89543920       1.20305212      18.60824974       95       0.01010302      -0.01590347       0.01387907
96
Lattice="7.79624515 0.0 0.0 6.460790638849395e-05 19.812461779894658 0.0 -8.057007841732163e-06 -0.00045645194496357253 19.81255558474037" Properties=species:S:1:pos:R:3:spacegroup_kinds:I:1:forces:R:3 spacegroup="P 1" unit_cell=conventional occupancy="_JSON {\"0\": {\"Zn\": 1}, \"1\": {\"Si\": 1}, \"2\": {\"H\": 1}, \"3\": {\"H\": 1}, \"4\": {\"H\": 1}, \"5\": {\"H\": 1}, \"6\": {\"H\": 1}, \"7\": {\"H\": 1}, \"8\": {\"H\": 1}, \"9\": {\"H\": 1}, \"10\": {\"H\": 1}, \"11\": {\"H\": 1}, \"12\": {\"H\": 1}, \"13\": {\"H\": 1}, \"14\": {\"H\": 1}, \"15\": {\"H\": 1}, \"16\": {\"H\": 1}, \"17\": {\"H\": 1}, \"18\": {\"H\": 1}, \"19\": {\"H\": 1}, \"20\": {\"H\": 1}, \"21\": {\"H\": 1}, \"22\": {\"H\": 1}, \"23\": {\"H\": 1}, \"24\": {\"H\": 1}, \"25\": {\"H\": 1}, \"26\": {\"C\": 1}, \"27\": {\"C\": 1}, \"28\": {\"C\": 1}, \"29\": {\"C\": 1}, \"30\": {\"C\": 1}, \"31\": {\"C\": 1}, \"32\": {\"C\": 1}, \"33\": {\"C\": 1}, \"34\": {\"C\": 1}, \"35\": {\"C\": 1}, \"36\": {\"C\": 1}, \"37\": {\"C\": 1}, \"38\": {\"C\": 1}, \"39\": {\"C\": 1}, \"40\": {\"C\": 1}, \"41\": {\"C\": 1}, \"42\": {\"C\": 1}, \"43\": {\"C\": 1}, \"44\": {\"C\": 1}, \"45\": {\"C\": 1}, \"46\": {\"C\": 1}, \"47\": {\"C\": 1}, \"48\": {\"C\": 1}, \"49\": {\"C\": 1}, \"50\": {\"C\": 1}, \"51\": {\"C\": 1}, \"52\": {\"C\": 1}, \"53\": {\"C\": 1}, \"54\": {\"C\": 1}, \"55\": {\"C\": 1}, \"56\": {\"C\": 1}, \"57\": {\"C\": 1}, \"58\": {\"C\": 1}, \"59\": {\"C\": 1}, \"60\": {\"C\": 1}, \"61\": {\"C\": 1}, \"62\": {\"C\": 1}, \"63\": {\"C\": 1}, \"64\": {\"C\": 1}, \"65\": {\"C\": 1}, \"66\": {\"C\": 1}, \"67\": {\"C\": 1}, \"68\": {\"C\": 1}, \"69\": {\"C\": 1}, \"70\": {\"C\": 1}, \"71\": {\"C\": 1}, \"72\": {\"C\": 1}, \"73\": {\"C\": 1}, \"74\": {\"N\": 1}, \"75\": {\"N\": 1}, \"76\": {\"N\": 1}, \"77\": {\"N\": 1}, \"78\": {\"N\": 1}, \"79\": {\"N\": 1}, \"80\": {\"N\": 1}, \"81\": {\"N\": 1}, \"82\": {\"O\": 1}, \"83\": {\"O\": 1}, \"84\": {\"O\": 1}, \"85\": {\"O\": 1}, \"86\": {\"O\": 1}, \"87\": {\"O\": 1}, \"88\": {\"O\": 1}, \"89\": {\"O\": 1}, \"90\": {\"F\": 1}, \"91\": {\"F\": 1}, \"92\": {\"F\": 1}, \"93\": {\"F\": 1}, \"94\": {\"F\": 1}, \"95\": {\"F\": 1}}" energy=-686.7068481445312 free_energy=-686.7068481445312 stress="-0.00022917822934687138 -3.39037501362327e-06 -1.7573669538251124e-05 -3.39037501362327e-06 -0.0006182838114909828 -4.180519317742437e-05 -1.7573669538251124e-05 -4.180519317742437e-05 -0.0005547890905290842" pbc="T T T"
Zn       7.79588746      19.81264458      19.81178845        0      -0.00665788       0.00404124      -0.00788197
Si       3.89640546      19.81267012      19.81011047        1      -0.03307614       0.02698521      -0.03065805
H       -0.00106363       8.63985178       3.36663392        2      -0.00022656      -0.01318566      -0.00169146
H       -0.00159851      11.17315396      16.44241584        3       0.00369863       0.00475863       0.01931961
H       -0.00115209      16.44513789       8.63883775        4      -0.00002092      -0.00722533      -0.00878688
H       -0.00136916       3.36806922      11.17183374        5      -0.00651166      -0.02971053      -0.01864205
H        7.79495539      11.17368263       3.36611843        6      -0.00394774       0.01300125       0.01029566
H        7.79543218       8.63954540      16.44350744        7      -0.00206487       0.00540949       0.00206652
H        7.79397763       3.36627430       8.63794934        8       0.00211470       0.04977077      -0.03058844
H       -0.00149373      16.44566651      11.17241204        9      -0.00224520       0.04006478      -0.01945790
H        5.71807424       2.26414925      -0.00093186       10      -0.00171183       0.01121553       0.00385384
H        5.63552828       4.76269097      19.81161979       11      -0.04148829      -0.00677171       0.00161773
H        5.71669231      17.54925248      -0.00116620       12      -0.01902644       0.01292207       0.00492918
H        5.63684090      15.05019849      -0.00053223       13      -0.05896761      -0.00295153      -0.00673392
H        5.71722183       0.00059184       2.26233480       14      -0.02575823       0.00153162      -0.01893355
H        5.63642262      19.81418620       4.76003274       15      -0.05717328      -0.01043467       0.00177219
H        5.71698418      19.81234884      17.54678154       16       0.02299540       0.00264243      -0.02461850
H        5.63661294       0.00140789      15.04898294       17      -0.03305922      -0.00570614       0.00415989
H        2.07523351      17.54801912      -0.00283577       18      -0.00340480       0.01202826       0.00121140
H        2.15564306      15.05037435      -0.00190196       19       0.02539431       0.02217720       0.00045501
H        2.07532731       2.26489020      -0.00167550       20      -0.00870906       0.00782779      -0.00485243
H        2.15641500       4.76351731      19.81098235       21       0.01510617      -0.01548935      -0.00338675
H        2.07445647       0.00013063       2.26237485       22       0.00749663       0.00079858      -0.00837340
H        2.15644712      19.81468365       4.75976556       23       0.03343913      -0.00735365      -0.00902132
H        2.07533555      19.81361888      17.54572204       24      -0.01182328      -0.00355843      -0.00195176
H        2.15658911       0.00082703      15.04888904       25       0.04544367       0.00337892       0.00509223
C        7.79551278       7.01724088       1.25709191       26      -0.02114453       0.03178219      -0.09774736
C       -0.00145859       8.50115986       1.23354844       27       0.00797877      -0.03533632       0.05630019
C       -0.00162991       9.20243354       2.43339211       28      -0.00155483       0.06220040      -0.06107235
C       -0.00167932      12.79693265      18.55403757       29      -0.01145584       0.01737884      -0.02507982
C       -0.00235653      11.31363740      18.57470954       30       0.01286334      -0.00525114       0.05084665
C       -0.00069029      10.61093866      17.37670028       31      -0.01424311       0.01225353      -0.01344702
C       -0.00083154      18.55600379       7.01539885       32      -0.00076748       0.02025819      -0.03414258
C       -0.00147898      18.57637151       8.49777703       33       0.00480768       0.06719797       0.04466134
C       -0.00152129      17.37831650       9.20138749       34      -0.00191912       0.04805842      -0.02370059
C       -0.00156132       1.25918656      12.79444489       35      -0.00816004      -0.13085969      -0.07655612
C       -0.00190910       1.23747891      11.31056661       36      -0.00657670      -0.06250048       0.02807662
C        7.79290285       2.43437096      10.60726248       37       0.02128224       0.05311868       0.04089252
C       -0.00316398      12.79643383       1.25554450       38       0.01517502       0.02805531       0.04393843
C       -0.00293192      11.31332894       1.23465136       39      -0.00227353      -0.00522366      -0.02061766
C       -0.00261131      10.61074886       2.43334479       40       0.00594188      -0.04673661      -0.04129276
C       -0.00206679       7.01801219      18.55398854       41       0.01749154      -0.01294976       0.07081747
C       -0.00079057       8.50137955      18.57434057       42      -0.01125167      -0.02068865       0.03299406
C       -0.00146245       9.20409008      17.37604520       43       0.01065256      -0.02631849       0.03423399
C        7.79509983       1.25922757       7.01481931       44      -0.01313978      -0.13554585       0.03184964
C        7.79430833       1.23672060       8.49855964       45       0.01266920      -0.01468282      -0.03168702
C        7.79456723       2.43493471       9.20084337       46      -0.01356125      -0.06123707       0.01150251
C        7.79394234      18.55603091      12.79354687       47       0.01665616      -0.04634018       0.10777801
C        7.79360351      18.57680226      11.31093034       48      -0.00008471       0.06590270       0.01708537
C       -0.00228439      17.37978497      10.60804859       49       0.00295047      -0.06510708       0.02956847
C        7.79346189       4.93606306      19.81026726       50       0.01942625      -0.03492615       0.00639754
C       -0.00130023       9.19502427      19.81100405       51      -0.00099381      -0.00579307      -0.02936326
C       -0.00159231      14.87753205      -0.00167604       52      -0.03872190       0.06856206      -0.00180863
C       -0.00212692      10.61844729      -0.00142742       53      -0.00282658       0.05316497      -0.01175541
C       -0.00208310      19.81428042       4.93380599       54       0.00460981      -0.04276835      -0.06481782
C       -0.00108878      19.81372770       9.19284346       55      -0.01143633      -0.05939866      -0.00381282
C       -0.00142980       0.00099144      14.87430832       56       0.02349665       0.00282155       0.05927315
C       -0.00217522       0.00110678      10.61696602       57       0.00421623      -0.00804389      -0.02028725
C        6.63434684       2.85102911      -0.00058687       58      -0.01097178      -0.06753378      -0.01778491
C        6.58994069       4.23982284      19.81124430       59      -0.03656015       0.04281634       0.00248928
C        6.63334637      16.96463784      -0.00038704       60       0.02770425      -0.06155430      -0.02691074
C        6.59046386      15.57328814      -0.00330050       61      -0.01678862       0.03670358       0.02946855
C        6.63360983      19.81293078       2.84698046       62       0.05575843      -0.00167165       0.00013891
C        6.59026006      19.81086483       4.23718686       63      -0.01213966       0.03110178       0.00337471
C        6.63486237       0.00049481      16.96098320       64      -0.03146116       0.00065290       0.04565260
C        6.59190327      -0.00005663      15.57070494       65      -0.07136029       0.00879683      -0.00146861
C        1.15736019      16.96416458      -0.00179528       66      -0.00284287       0.00663453      -0.00957291
C        1.20102881      15.57432375      -0.00212510       67       0.07678623      -0.03367197       0.00582159
C        1.15811665       2.85059608      -0.00302331       68      -0.01383638      -0.02441490       0.00354354
C        1.20119794       4.24041841      19.80954545       69       0.05999830       0.00560527       0.00569462
C        1.15726395      19.81282772       2.84688398       70       0.01466826       0.00434466       0.00743350
C        1.20153731      19.81203510       4.23732984       71       0.02822161       0.02076136       0.00678466
C        1.15739072       0.00020474      16.96103869       72       0.01403031       0.02247825       0.04607743
C        1.20198780       0.00208824      15.57115067       73       0.02323048      -0.01771346      -0.00746873
N        7.79390237       2.16491122      -0.00270367       74       0.02815374      -0.00440180       0.01059584
N        7.79482187       6.37880281      19.81183182       75      -0.00835311      -0.03981723      -0.00633450
N       -0.00278984      17.64924887      -0.00175883       76       0.00843816       0.04555076       0.01229047
N       -0.00137307      13.43528832      -0.00076877       77      -0.00192603       0.05045474      -0.03265393
N       -0.00184700      19.81474910       2.16110512       78      -0.04456133      -0.01495912      -0.00436550
N       -0.00154012      19.81291340       6.37621718       79      -0.00060271       0.04012319      -0.02782230
N       -0.00241461      19.81402354      17.64805687       80       0.02623225      -0.01668692      -0.02151573
N       -0.00011259       0.00156207      13.43211878       81      -0.01367649      -0.03927130       0.03193972
O        7.79314357       6.36401416       2.29501994       82       0.00823173       0.01941425       0.02400528
O        7.79343199      13.45106179      17.51454733       83       0.00440453      -0.07364798       0.08380073
O        7.79622289      17.51754647       6.36132750       84      -0.00049782       0.01029351       0.04031781
O       -0.00350533       2.29531992      13.44828721       85       0.00372665       0.10684490       0.02279767
O       -0.00219938      13.45013579       2.29536837       86      -0.00586918      -0.07116737      -0.07524503
O        7.79501200       6.36200877      17.51750065       87      -0.00630270       0.03970571      -0.02888206
O        7.79384961       2.29580134       6.36046967       88       0.00446494       0.05779835       0.00769924
O        7.79536222      17.51758664      13.45102939       89      -0.00690931       0.11812191      -0.13200927
F        2.13048495       0.00133168      -0.00299763       90       0.03498888      -0.00005221      -0.00016282
F        5.65942751      19.81361434      19.81072663       91      -0.02607328      -0.00659198      -0.00201437
F        3.89471725       1.20452014       1.19829283       92       0.00313957       0.00853944       0.01903465
F        3.89448061      18.61017318      18.60730270       93       0.00908016      -0.00402417      -0.00392890
F        3.89277333      18.61212368       1.19909939       94       0.01220207      -0.02588484       0.02840406
F        3.89433853       1.20297613      18.60717441       95       0.00735044      -0.00089130      -0.00744739
