98
Lattice="20.77669442 0.0 0.0 -7.86340099821663 19.393798133448552 0.0 -7.874145551505024 -8.58695568455606 17.38381518064233" Properties=species:S:1:pos:R:3:spacegroup_kinds:I:1:forces:R:3 spacegroup="P 1" unit_cell=conventional occupancy="_JSON {\"0\": {\"Zn\": 1}, \"1\": {\"Zn\": 1}, \"2\": {\"Zn\": 1}, \"3\": {\"Zn\": 1}, \"4\": {\"Zn\": 1}, \"5\": {\"Zn\": 1}, \"6\": {\"Zn\": 1}, \"7\": {\"Zn\": 1}, \"8\": {\"H\": 1}, \"9\": {\"H\": 1}, \"10\": {\"H\": 1}, \"11\": {\"H\": 1}, \"12\": {\"C\": 1}, \"13\": {\"C\": 1}, \"14\": {\"C\": 1}, \"15\": {\"C\": 1}, \"16\": {\"C\": 1}, \"17\": {\"C\": 1}, \"18\": {\"C\": 1}, \"19\": {\"C\": 1}, \"20\": {\"C\": 1}, \"21\": {\"C\": 1}, \"22\": {\"C\": 1}, \"23\": {\"C\": 1}, \"24\": {\"C\": 1}, \"25\": {\"C\": 1}, \"26\": {\"C\": 1}, \"27\": {\"C\": 1}, \"28\": {\"C\": 1}, \"29\": {\"C\": 1}, \"30\": {\"C\": 1}, \"31\": {\"C\": 1}, \"32\": {\"C\": 1}, \"33\": {\"C\": 1}, \"34\": {\"C\": 1}, \"35\": {\"C\": 1}, \"36\": {\"C\": 1}, \"37\": {\"C\": 1}, \"38\": {\"C\": 1}, \"39\": {\"C\": 1}, \"40\": {\"C\": 1}, \"41\": {\"C\": 1}, \"42\": {\"C\": 1}, \"43\": {\"C\": 1}, \"44\": {\"C\": 1}, \"45\": {\"C\": 1}, \"46\": {\"C\": 1}, \"47\": {\"C\": 1}, \"48\": {\"C\": 1}, \"49\": {\"C\": 1}, \"50\": {\"C\": 1}, \"51\": {\"C\": 1}, \"52\": {\"C\": 1}, \"53\": {\"C\": 1}, \"54\": {\"C\": 1}, \"55\": {\"C\": 1}, \"56\": {\"C\": 1}, \"57\": {\"C\": 1}, \"58\": {\"C\": 1}, \"59\": {\"C\": 1}, \"60\": {\"C\": 1}, \"61\": {\"C\": 1}, \"62\": {\"C\": 1}, \"63\": {\"C\": 1}, \"64\": {\"I\": 1}, \"65\": {\"I\": 1}, \"66\": {\"I\": 1}, \"67\": {\"I\": 1}, \"68\": {\"I\": 1}, \"69\": {\"I\": 1}, \"70\": {\"I\": 1}, \"71\": {\"I\": 1}, \"72\": {\"O\": 1}, \"73\": {\"O\": 1}, \"74\": {\"O\": 1}, \"75\": {\"O\": 1}, \"76\": {\"O\": 1}, \"77\": {\"O\": 1}, \"78\": {\"O\": 1}, \"79\": {\"O\": 1}, \"80\": {\"O\": 1}, \"81\": {\"O\": 1}, \"82\": {\"O\": 1}, \"83\": {\"O\": 1}, \"84\": {\"O\": 1}, \"85\": {\"O\": 1}, \"86\": {\"O\": 1}, \"87\": {\"O\": 1}, \"88\": {\"O\": 1}, \"89\": {\"O\": 1}, \"90\": {\"O\": 1}, \"91\": {\"O\": 1}, \"92\": {\"O\": 1}, \"93\": {\"O\": 1}, \"94\": {\"O\": 1}, \"95\": {\"O\": 1}, \"96\": {\"O\": 1}, \"97\": {\"O\": 1}}" energy=-663.3026123046875 free_energy=-663.3026123046875 stress="-0.0012777792289853096 8.645430352771655e-05 0.0002533170918468386 8.645430352771655e-05 -0.0003263788821641356 0.0004751858359668404 0.0002533170918468386 0.0004751858359668404 -0.0006806852761656046" pbc="T T T"
Zn      -3.02631328       7.23578154      13.75801753        0       0.03221010      -0.23415191      -0.21835710
Zn       4.85914210       3.76946991       3.88267033        1       0.21823448      -0.13016698       0.16443014
Zn      -1.27385834       9.90657710      13.84351775        2       0.03581916       0.08993077      -0.48519325
Zn       6.28267773       0.91055794       3.55645795        3       0.16504911      -0.08050469       0.32959300
Zn       0.19714026       7.06037433      13.52780428        4      -0.14510071       0.02554079      -0.07674184
Zn       8.05332096       3.59146325       3.62484165        5      -0.08854847       0.15567000       0.14899586
Zn      -1.53931928       8.26089490      11.07467086        6      -0.16997963      -0.43133080      -0.10900749
Zn       6.60165306       2.55784472       6.34162890        7       0.15838414       0.21628617      -0.33748034
H       -7.62784926      10.97744250      16.55663599        8      -0.49047649      -0.09234232      -0.17412993
H       12.68387350      -0.17463743       0.86741660        9      -0.22991534       0.00981427      -0.16176131
H        2.58187982       2.97768861       8.97219585       10      -0.21788935       0.63236028      -0.14732350
H        2.43424628       7.85323684       8.41047543       11       0.24151978      -1.28365159       0.29694977
C        0.84543522       6.62585857      10.68886831       12      -0.33366299      -0.24131033      -0.83924419
C       -4.56776590      10.11984809      16.47657870       13       0.50597072       0.30232346      -0.06520283
C        2.50315695       6.72788220       8.57203467       14      -0.93032801       1.84542441      -0.45134431
C       -6.61995108      10.87561735      16.91721895       15       0.47743595       0.08528274      -0.41554457
C       11.66873757      -0.10183102       0.45486827       16      -0.35131085       0.13337369       0.20467721
C        2.51944629       4.08169564       8.84237049       17       0.23261341      -1.87695670      -0.19496018
C        3.25392160       4.84294037       7.72390698       18       1.11950529      -0.74532104      -1.24789643
C        1.73088613       5.96726711       9.70847466       19       0.91925186      -0.34013671      -1.21870172
C        9.62000473       0.64823002       0.87666505       20      -1.33521652       0.45921969       1.19753933
C        2.51543881      18.73039748       1.14049974       21       0.81702709      -1.21961796       0.93139881
C        2.49389969      -7.92128754      16.21110258       22       0.22583523      -0.02012140       0.17204320
C        2.01602809       5.71631168       7.44525976       23      -0.21518773       0.43589833       0.85044670
C        4.18774539       4.17588861       6.73843627       24      -0.53380477       1.11286402      -1.29727530
C        3.04007193       5.04866782       9.88667730       25      -0.75137854       0.61928684       1.17832220
C       -1.44851855      12.43449452      10.43024127       26      -0.10569847      -0.11368215      -0.73636556
C        6.47964296      -1.61017828       6.99934043       27       0.07676177       2.08178115      -1.08245564
C       -1.42521161       3.79334141      15.72182304       28      -0.13049683       5.01857853      -3.02832890
C        6.49385746       7.01826420       1.65475991       29      -0.35575539      -3.88516235       2.44735074
C       -3.65158121       9.50137870      15.46729327       30      -0.25077933       0.97235197       0.47712737
C       -1.44082929      13.44698447       9.72216667       31       0.04546703      -1.67149723       1.21253335
C        6.48591415      -2.63871284       7.63223983       32      -0.02420794      -2.32750297       1.62581944
C       -1.40711882       2.79779860      16.35058720       33       0.02669360      -4.40326357       2.78388906
C        6.49002726       8.03593537       1.04024673       34      -0.15618406       3.00508928      -1.81676483
C        8.70760765       1.25740148       1.89218730       35      -1.52988911       0.90247285       1.47940898
C       -1.39888482      14.55035211       9.01050083       36      -0.03235816       1.34268439      -0.67804509
C        6.47638203      -3.77595754       8.38910141       37       0.01841756       0.80276477      -0.80239630
C       -1.40217272       1.65636347      17.07186694       38      -0.14167044      -1.23387766       0.72575957
C        6.43291768       9.17976517       0.34404729       39       0.28305942       1.61340094      -1.00479043
C        2.52032020       9.76854740      15.71452831       40       1.31633711       0.84263384       0.68680429
C        2.46982943       1.03503567       1.66303914       41       3.59852362       1.30916810       2.07625532
C        3.50565702      10.18122634      16.33522072       42      -0.89286387      -0.44156370      -0.46361181
C        1.52791431       0.61761274       1.05123925       43      -1.71243215      -0.68288285      -1.17945433
C        4.54588797      10.58129669      17.04357655       44       2.69102001       1.24137187       1.87214160
C        0.49312138       0.20364784       0.34114175       45      -2.85448313      -1.30606937      -1.94905627
C       -1.41770930       5.06054330      14.95633392       46      -1.08233285      -1.57818246       0.77128214
C        6.47602569       5.75995078       2.43486963       47      -2.46829700       1.74629235      -1.08225358
C       -1.45075491      11.16286727      11.14283700       48       0.25363821       1.59329855       0.41594285
C        6.48864165      -0.35515241       6.23774239       49      -0.06187086      -0.85030448       0.56599665
C        1.44393706       9.33260460      14.93338135       50      -1.51087236      -0.90778387      -0.67058545
C        3.64573194       1.51906792       2.42205372       51      -0.18419939      -1.35639882       0.40636116
C       -4.18313488       6.89473877      11.07223482       52      -1.19170833      -0.34389469      -1.20065343
C        9.23543882       3.90759690       6.29854397       53       1.38563848       0.67071193      -0.50169969
C       -5.34612174       6.42847988      10.28242511       54       3.13296986       1.22811747       1.97137046
C       10.34530055       4.38268784       7.10092839       55       0.99888432       0.43194467       0.14473176
C       -6.33073254       6.05058440       9.71655798       56      -1.81989825      -0.74460590      -1.36037707
C       11.36169024       4.78979415       7.68381574       57      -1.11874318      -0.50586897      -0.47764993
C       -7.36148316       5.62972271       8.98746320       58      -0.93803614      -0.44808632      -0.33967972
C       12.42200655       5.19665991       8.38371714       59       0.53361493       0.36119151       0.20987874
C       -5.82943591       9.53525556      17.15613859       60      -0.63478911       0.31180108       0.06781915
C       10.86648007       1.23764307       0.24475642       61       1.17110944       0.23698938      -1.00265825
C        1.26675642       4.91683957       8.57671396       62      -0.90493625       0.11633751       0.60891306
C        3.74598997       5.88139536       8.79418133       63       1.02900028       0.29189652      -0.23562619
I       -6.69539593       7.63709552      16.87962171       64       0.00042674      -0.04154268       0.04218874
I        2.52710649      -6.84527122      14.39561685       65      -0.11582407       0.00082625       0.07040249
I        1.16433169       6.32837788       5.63212219       66      -0.04550087      -0.00982266      -0.11211981
I        3.87694856       4.48101729      11.72750280       67       0.12942380      -0.05466357       0.09723850
I        2.55101346      17.65037213       3.01257384       68       0.01694819       0.23697814      -0.44210017
I       11.76402918       3.15532848       0.53992829       69      -0.20047626      -0.29239333      -0.05458901
I       -0.69382685       4.11070667       8.46289874       70       0.13434377       0.01829851      -0.06936738
I        5.72794388       6.65303645       8.87150504       71      -0.14496438       0.01823598       0.08698894
O       -1.42645242       8.10297565      13.01082989       72       0.14887358       0.08159281       0.42111313
O        5.13102813       3.48260555       7.21430737       73      -0.03908844      -0.27372652       0.28347844
O       -3.98923246       8.37013100      15.01723008       74       0.32905090      -0.21572728      -0.30775604
O        8.99235080       2.42428818       2.41096000       75       0.08110239      -1.86654818      -1.22576702
O       -0.29490569       5.48399197      14.63202045       76       1.68442392       0.74867177      -0.46518680
O        5.33189239       5.29832561       2.77507977       77       0.05293259       0.41287583      -0.21258639
O       -1.35053656      11.33769046      12.40651688       78      -0.10663415      -0.81465650       0.33217862
O        6.37742115      -0.51537713       4.97962314       79       0.07203136       0.64198321      -0.00218028
O        6.47318081       2.69106016       4.36551325       80      -0.22354391       0.13776366       0.07643518
O        1.49936440       8.11120814      14.54855447       81       0.24340518      -0.19569162      -0.06806214
O        3.55502208       2.71871662       2.85087857       82       0.29006746      -0.54296845      -0.34902793
O        0.46719686      10.12034386      14.69878224       83       0.40152377       0.46580240       0.24931210
O        4.58501400       0.63211833       2.66531052       84      -1.68691778       1.46505380      -0.72080553
O       -3.25496481       7.45367111      10.42713512       85       0.58147401       0.31515548      -0.29603010
O        8.31711296       3.36037010       6.93888534       86      -1.47240329      -0.74559772       0.71579504
O       -4.26811125       6.68721487      12.30728737       87       0.05686291      -0.09489715       1.20639145
O        9.33417603       4.08511655       5.03653956       88      -0.05379230       0.06132546       0.05981848
O       -2.54824403       5.56378864      14.68774885       89      -0.50411385       0.11921400       0.06463522
O        7.57864244       5.27821257       2.65613647       90       2.86215162      -1.48788977       0.76946568
O       -1.51291357      10.09489253      10.47699424       91      -0.12359459      -0.04870299      -0.34168881
O        6.59543069       0.71750592       6.93405049       92      -0.04703575      -0.61666590      -0.40060306
O        1.04028254       6.34747971      11.90145965       93      -0.05812475       0.16757137       0.87341774
O        3.98572697       4.45445219       5.48169343       94       0.10106834      -0.45204890       1.39810681
O       -2.64518803      10.24434350      15.17195693       95      -0.22870988      -0.64862967      -0.05933435
O        7.63470884       0.56963823       2.21178721       96       1.86006272       0.70743263      -0.87567025
O       -0.06909181       7.35832064      10.17035279       97       0.18986164       0.05547726       0.28474355
98
Lattice="20.77669442 0.0 0.0 -7.86340099821663 19.393798133448552 0.0 -7.874145551505024 -8.58695568455606 17.38381518064233" Properties=species:S:1:pos:R:3:spacegroup_kinds:I:1:forces:R:3 spacegroup="P 1" unit_cell=conventional occupancy="_JSON {\"0\": {\"Zn\": 1}, \"1\": {\"Zn\": 1}, \"2\": {\"Zn\": 1}, \"3\": {\"Zn\": 1}, \"4\": {\"Zn\": 1}, \"5\": {\"Zn\": 1}, \"6\": {\"Zn\": 1}, \"7\": {\"Zn\": 1}, \"8\": {\"H\": 1}, \"9\": {\"H\": 1}, \"10\": {\"H\": 1}, \"11\": {\"H\": 1}, \"12\": {\"C\": 1}, \"13\": {\"C\": 1}, \"14\": {\"C\": 1}, \"15\": {\"C\": 1}, \"16\": {\"C\": 1}, \"17\": {\"C\": 1}, \"18\": {\"C\": 1}, \"19\": {\"C\": 1}, \"20\": {\"C\": 1}, \"21\": {\"C\": 1}, \"22\": {\"C\": 1}, \"23\": {\"C\": 1}, \"24\": {\"C\": 1}, \"25\": {\"C\": 1}, \"26\": {\"C\": 1}, \"27\": {\"C\": 1}, \"28\": {\"C\": 1}, \"29\": {\"C\": 1}, \"30\": {\"C\": 1}, \"31\": {\"C\": 1}, \"32\": {\"C\": 1}, \"33\": {\"C\": 1}, \"34\": {\"C\": 1}, \"35\": {\"C\": 1}, \"36\": {\"C\": 1}, \"37\": {\"C\": 1}, \"38\": {\"C\": 1}, \"39\": {\"C\": 1}, \"40\": {\"C\": 1}, \"41\": {\"C\": 1}, \"42\": {\"C\": 1}, \"43\": {\"C\": 1}, \"44\": {\"C\": 1}, \"45\": {\"C\": 1}, \"46\": {\"C\": 1}, \"47\": {\"C\": 1}, \"48\": {\"C\": 1}, \"49\": {\"C\": 1}, \"50\": {\"C\": 1}, \"51\": {\"C\": 1}, \"52\": {\"C\": 1}, \"53\": {\"C\": 1}, \"54\": {\"C\": 1}, \"55\": {\"C\": 1}, \"56\": {\"C\": 1}, \"57\": {\"C\": 1}, \"58\": {\"C\": 1}, \"59\": {\"C\": 1}, \"60\": {\"C\": 1}, \"61\": {\"C\": 1}, \"62\": {\"C\": 1}, \"63\": {\"C\": 1}, \"64\": {\"I\": 1}, \"65\": {\"I\": 1}, \"66\": {\"I\": 1}, \"67\": {\"I\": 1}, \"68\": {\"I\": 1}, \"69\": {\"I\": 1}, \"70\": {\"I\": 1}, \"71\": {\"I\": 1}, \"72\": {\"O\": 1}, \"73\": {\"O\": 1}, \"74\": {\"O\": 1}, \"75\": {\"O\": 1}, \"76\": {\"O\": 1}, \"77\": {\"O\": 1}, \"78\": {\"O\": 1}, \"79\": {\"O\": 1}, \"80\": {\"O\": 1}, \"81\": {\"O\": 1}, \"82\": {\"O\": 1}, \"83\": {\"O\": 1}, \"84\": {\"O\": 1}, \"85\": {\"O\": 1}, \"86\": {\"O\": 1}, \"87\": {\"O\": 1}, \"88\": {\"O\": 1}, \"89\": {\"O\": 1}, \"90\": {\"O\": 1}, \"91\": {\"O\": 1}, \"92\": {\"O\": 1}, \"93\": {\"O\": 1}, \"94\": {\"O\": 1}, \"95\": {\"O\": 1}, \"96\": {\"O\": 1}, \"97\": {\"O\": 1}}" energy=-661.580810546875 free_energy=-661.580810546875 stress="-0.002372525865212083 5.695833533536643e-05 0.0001007110477075912 5.695833533536643e-05 -0.000506899319589138 0.0011139654088765383 0.0001007110477075912 0.0011139654088765383 -0.0012386107118800282" pbc="T T T"
Zn      -3.03210640       7.24559966      13.77220067        0      -0.06309349      -0.31019393      -0.30665866
Zn       4.87295332       3.79635670       3.89987864        1       0.25444818      -0.55263942      -0.15724988
Zn      -1.25649831       9.92470637      13.85962746        2       0.04676804      -0.28013563      -0.64333045
Zn       6.31201269       0.89474645       3.56463085        3      -0.01578670       0.31478292       0.23793620
Zn       0.18701314       7.04806468      13.51517760        4      -0.02160753      -0.12903099       0.01778998
Zn       8.07317231       3.59659602       3.64514180        5      -0.34990963       0.17030540      -0.15567306
Zn      -1.55990207       8.28545025      11.06448757        6      -0.10528715      -0.74441516       0.17661971
Zn       6.59008005       2.55901599       6.32205867        7       0.42963353       0.24465427      -0.13022476
H       -7.62777386      10.99112842      16.53731068        8      -0.97700018      -0.04451612      -0.31951779
H       12.67031888      -0.20090936       0.87610274        9      -0.11399171       0.02719349      -0.00709765
H        2.57908514       2.97577364       8.99715859       10      -0.23181723       0.19173905      -0.29999322
H        2.40848054       7.87066680       8.38995869       11       0.40475062      -1.71766138       0.52479941
C        0.82246458       6.61409197      10.69271668       12       0.89115614      -0.38208765      -1.42216802
C       -4.54677974      10.10347266      16.44954099       13      -0.89884853       1.17029989       1.44977677
C        2.51488708       6.73104153       8.58604159       14      -0.86075878       2.41752982      -0.41738057
C       -6.64525479      10.87404980      16.91949231       15       1.76604700       0.24717452      -0.32268792
C       11.65284529      -0.12623474       0.48317118       16       0.01547277       0.70910311      -0.80212635
C        2.52127554       4.05864630       8.82153174       17      -0.05365949      -0.86367726       0.47916299
C        3.23219780       4.84111423       7.75212277       18       2.82276440      -1.05781591      -2.77495599
C        1.75266065       5.96215004       9.71570819       19       0.28470618      -0.35185707      -1.23575139
C        9.60375073       0.62958101       0.88898375       20      -0.95314097       1.37342346       0.69939041
C        2.51765705      18.73652371       1.13318884       21       0.39039126      -1.62850940       1.56817913
C        2.51329700      -7.92056136      16.19927066       22      -0.27241072      -0.19332343       0.75507909
C        2.04157332       5.73142895       7.46637876       23      -0.92947078       0.57261741       0.23241568
C        4.20789014       4.19462350       6.71597026       24      -0.36491656       0.61795628       0.10635495
C        3.06284770       5.02311023       9.88402955       25      -1.27483296       0.95896888       0.82107568
C       -1.42434720      12.45638749      10.45120981       26      -0.23364539      -1.58847308       0.10604171
C        6.46522438      -1.63723510       6.97518366       27       0.31152278       4.32344723      -2.36494875
C       -1.43897483       3.76618405      15.73874376       28      -0.13515069       7.16213417      -4.10899162
C        6.48202319       7.04425369       1.66036621       29      -0.25867742      -6.36874676       3.98457098
C       -3.64090909       9.52327528      15.44349425       30      -2.54054141      -1.83094120       0.69652408
C       -1.43891713      13.42361306       9.70495628       31       0.03141745      -1.44264233       1.16940427
C        6.50141289      -2.62450765       7.63695039       32      -0.06264664      -4.75775623       3.08876038
C       -1.43064300       2.77359521      16.35148065       33       0.09320590      -3.58822012       2.28406811
C        6.47450909       8.01534859       1.01054622       34      -0.20949596       5.60199976      -3.29811764
C        8.72111820       1.25572497       1.90474958       35      -2.43493509       0.53284454       1.72576857
C       -1.41923623      14.52241611       9.02124388       36       0.12522556       3.64903188      -2.16726637
C        6.48232059      -3.79115057       8.38957437       37      -0.04883653       0.30685616      -0.44682574
C       -1.37824338       1.68395233      17.06364591       38      -0.43146405      -4.78255653       2.96184802
C        6.40839658       9.19791045       0.35890335       39       0.55666536       2.31473970      -1.73183274
C        2.54108061       9.78719677      15.72398095       40      -0.58093828      -0.02358282      -0.35483944
C        2.47982454       1.06004445       1.65937918       41       3.26366115       0.98307228       2.10649848
C        3.51888438      10.19005362      16.34364523       42      -2.37574530      -0.97119927      -1.50510406
C        1.55266987       0.61592957       1.03638792       43      -2.73950863      -0.99791515      -1.73685527
C        4.52650234      10.58092764      17.01436123       44       5.66045189       2.44051313       4.03318405
C        0.46848209       0.20691464       0.34332027       45      -2.06109810      -1.09487534      -1.73264408
C       -1.43626336       5.08233586      14.97212918       46       2.22975612      -3.49634504       1.24505711
C        6.49264234       5.76076520       2.43739614       47      -2.76092291       2.07177472      -1.17236125
C       -1.44556113      11.17754746      11.16945776       48       0.34926021       1.07906175      -0.95630848
C        6.51442407      -0.35654099       6.21864171       49      -0.62632054      -0.21604255       1.28335822
C        1.42745460       9.31483399      14.94698211       50       0.46406749       0.09918303       0.02837350
C        3.65242170       1.50711442       2.45086512       51      -0.22731546       0.15436380      -0.09821832
C       -4.18212992       6.88448221      11.08190746       52      -2.24367476      -0.82168245      -0.85026228
C        9.24439085       3.91877115       6.27157658       53       1.00941348      -0.23893671       0.82787609
C       -5.34501969       6.44732472      10.26824883       54       5.46829700       2.00694203       3.62420702
C       10.35030034       4.35447204       7.12950015       55      -0.38305628       0.12333821      -1.20841157
C       -6.31051500       6.06897604       9.73390498       56      -5.44176626      -2.16412568      -3.56863022
C       11.35430287       4.76701449       7.68404180       57       1.43113804       0.56838322       1.21249390
C       -7.37421168       5.63022801       8.99123476       58       2.83785009       1.18852878       2.07688046
C       12.44150295       5.21322829       8.40955303       59      -3.50571322      -1.44117391      -2.35478830
C       -5.85838420       9.56030940      17.17737887       60      -0.12422496      -0.62530893      -0.97205794
C       10.85423053       1.25733730       0.24802734       61       1.09534764      -0.75311142      -1.07753897
C        1.26852142       4.93583675       8.56466794       62      -0.72768527      -0.34017140       1.04556501
C        3.76906453       5.89194664       8.81311191       63       0.13931537      -0.25053963      -0.36565077
I       -6.68839632       7.61601516      16.86394534       64       0.07721769       0.29440087       0.15994141
I        2.51766571      -6.84533152      14.38542791       65      -0.08756619       0.00305175       0.06710565
I        1.13931959       6.32433003       5.62747976       66       0.17813084      -0.07893857       0.19520766
I        3.87577326       4.46227745      11.69856097       67       0.33076343      -0.21098967       0.49985725
I        2.52785956      17.66868182       3.03904483       68       0.04220362       0.27002674      -0.60915655
I       11.76457387       3.16421512       0.51183908       69      -0.21060582      -0.28922781      -0.00514423
I       -0.68523441       4.10983244       8.43698748       70       0.14149667       0.08613258      -0.06928275
I        5.70036640       6.65064725       8.86519846       71       0.42412668       0.22708483       0.11147315
O       -1.43956572       8.08739008      13.03144232       72       0.35890058       0.37100530       0.14768969
O        5.15756262       3.48969188       7.22393188       73      -1.05196738       0.54094195      -0.38286158
O       -4.00040260       8.37256287      14.99185874       74       0.40837184       0.43570334       0.03368451
O        9.01094943       2.42328287       2.42919991       75      -0.13382724      -2.36800599      -1.37874746
O       -0.27439086       5.45566803      14.64457813       76       0.75597179       0.79002434      -0.22816564
O        5.35391917       5.27334609       2.77189022       77       0.28152749       0.71553695      -0.43498626
O       -1.32076153      11.31312111      12.40881486       78      -0.05332797      -0.30325407       1.67154086
O        6.36894006      -0.49993207       4.95721176       79       0.32542452       0.50881433       0.66662526
O        6.48997366       2.70245763       4.36991448       80      -0.27995467       0.01418926      -0.12619382
O        1.51456466       8.13366846      14.52961302       81       0.15812212      -1.53810668      -0.35200280
O        3.56784665       2.73689036       2.85900561       82       0.28763345      -1.42639756      -0.32694936
O        0.47621016      10.10088927      14.70169851       83      -0.58040667       1.21586514       0.28250840
O        4.61138806       0.65372906       2.64639958       84      -1.58132827       1.05974042      -0.38556787
O       -3.28441199       7.44845963      10.45363069       85       2.21321869       1.31818962      -1.39254904
O        8.33723112       3.34773762       6.94921422       86      -0.90469754      -0.13871762      -0.33691990
O       -4.24071643       6.66199065      12.30689372       87      -0.23293480      -0.39324516       1.76287353
O        9.35347303       4.06819567       5.00940869       88       0.07361652       0.27149031       0.57798839
O       -2.52072275       5.55376861      14.68110964       89      -2.87307262       1.44409347      -0.50852340
O        7.60180624       5.30495134       2.66505775       90       2.95355606      -1.53834963       0.80440426
O       -1.52203363      10.10190560      10.50216518       91      -0.19901857       0.48069936      -0.51248074
O        6.60078507       0.73230722       6.94837485       92       0.01981109      -2.04160309      -1.28286695
O        1.06193148       6.32887310      11.88708756       93      -0.39448422       0.16141766       1.63285804
O        4.00770522       4.47558327       5.46735608       94       0.06553363      -0.34638691       1.76766026
O       -2.67029084      10.21822650      15.14644632       95       2.20325375       1.22861648      -0.74071324
O        7.61510058       0.54535792       2.20776696       96       2.91410780       1.46737766      -1.04419351
O       -0.05267990       7.38150174      10.18332239       97      -0.36263385       0.19706441       0.23329830
98
Lattice="20.77669442 0.0 0.0 -7.86340099821663 19.393798133448552 0.0 -7.874145551505024 -8.58695568455606 17.38381518064233" Properties=species:S:1:pos:R:3:spacegroup_kinds:I:1:forces:R:3 spacegroup="P 1" unit_cell=conventional occupancy="_JSON {\"0\": {\"Zn\": 1}, \"1\": {\"Zn\": 1}, \"2\": {\"Zn\": 1}, \"3\": {\"Zn\": 1}, \"4\": {\"Zn\": 1}, \"5\": {\"Zn\": 1}, \"6\": {\"Zn\": 1}, \"7\": {\"Zn\": 1}, \"8\": {\"H\": 1}, \"9\": {\"H\": 1}, \"10\": {\"H\": 1}, \"11\": {\"H\": 1}, \"12\": {\"C\": 1}, \"13\": {\"C\": 1}, \"14\": {\"C\": 1}, \"15\": {\"C\": 1}, \"16\": {\"C\": 1}, \"17\": {\"C\": 1}, \"18\": {\"C\": 1}, \"19\": {\"C\": 1}, \"20\": {\"C\": 1}, \"21\": {\"C\": 1}, \"22\": {\"C\": 1}, \"23\": {\"C\": 1}, \"24\": {\"C\": 1}, \"25\": {\"C\": 1}, \"26\": {\"C\": 1}, \"27\": {\"C\": 1}, \"28\": {\"C\": 1}, \"29\": {\"C\": 1}, \"30\": {\"C\": 1}, \"31\": {\"C\": 1}, \"32\": {\"C\": 1}, \"33\": {\"C\": 1}, \"34\": {\"C\": 1}, \"35\": {\"C\": 1}, \"36\": {\"C\": 1}, \"37\": {\"C\": 1}, \"38\": {\"C\": 1}, \"39\": {\"C\": 1}, \"40\": {\"C\": 1}, \"41\": {\"C\": 1}, \"42\": {\"C\": 1}, \"43\": {\"C\": 1}, \"44\": {\"C\": 1}, \"45\": {\"C\": 1}, \"46\": {\"C\": 1}, \"47\": {\"C\": 1}, \"48\": {\"C\": 1}, \"49\": {\"C\": 1}, \"50\": {\"C\": 1}, \"51\": {\"C\": 1}, \"52\": {\"C\": 1}, \"53\": {\"C\": 1}, \"54\": {\"C\": 1}, \"55\": {\"C\": 1}, \"56\": {\"C\": 1}, \"57\": {\"C\": 1}, \"58\": {\"C\": 1}, \"59\": {\"C\": 1}, \"60\": {\"C\": 1}, \"61\": {\"C\": 1}, \"62\": {\"C\": 1}, \"63\": {\"C\": 1}, \"64\": {\"I\": 1}, \"65\": {\"I\": 1}, \"66\": {\"I\": 1}, \"67\": {\"I\": 1}, \"68\": {\"I\": 1}, \"69\": {\"I\": 1}, \"70\": {\"I\": 1}, \"71\": {\"I\": 1}, \"72\": {\"O\": 1}, \"73\": {\"O\": 1}, \"74\": {\"O\": 1}, \"75\": {\"O\": 1}, \"76\": {\"O\": 1}, \"77\": {\"O\": 1}, \"78\": {\"O\": 1}, \"79\": {\"O\": 1}, \"80\": {\"O\": 1}, \"81\": {\"O\": 1}, \"82\": {\"O\": 1}, \"83\": {\"O\": 1}, \"84\": {\"O\": 1}, \"85\": {\"O\": 1}, \"86\": {\"O\": 1}, \"87\": {\"O\": 1}, \"88\": {\"O\": 1}, \"89\": {\"O\": 1}, \"90\": {\"O\": 1}, \"91\": {\"O\": 1}, \"92\": {\"O\": 1}, \"93\": {\"O\": 1}, \"94\": {\"O\": 1}, \"95\": {\"O\": 1}, \"96\": {\"O\": 1}, \"97\": {\"O\": 1}}" energy=-659.9550170898438 free_energy=-659.9550170898438 stress="-0.002515804022550583 0.0003141910710837692 -0.00033355559571646154 0.0003141910710837692 -0.0009706142591312528 0.0013941718498244882 -0.00033355559571646154 0.0013941718498244882 -0.000965254323091358" pbc="T T T"
Zn      -3.05407683       7.24174838      13.75573867        0       0.14044198      -0.15854576       0.15153271