92
Lattice="9.19218081 0.0 0.0 -2.200716650774367 9.681700125141564 0.0 -0.8442899191014714 -4.0869384101251605 11.424811513954154" Properties=species:S:1:pos:R:3:spacegroup_kinds:I:1:forces:R:3 spacegroup="P 1" unit_cell=conventional occupancy="_JSON {\"0\": {\"Cd\": 1}, \"1\": {\"Cd\": 1}, \"2\": {\"H\": 1}, \"3\": {\"H\": 1}, \"4\": {\"H\": 1}, \"5\": {\"H\": 1}, \"6\": {\"H\": 1}, \"7\": {\"H\": 1}, \"8\": {\"H\": 1}, \"9\": {\"H\": 1}, \"10\": {\"H\": 1}, \"11\": {\"H\": 1}, \"12\": {\"H\": 1}, \"13\": {\"H\": 1}, \"14\": {\"H\": 1}, \"15\": {\"H\": 1}, \"16\": {\"H\": 1}, \"17\": {\"H\": 1}, \"18\": {\"H\": 1}, \"19\": {\"H\": 1}, \"20\": {\"H\": 1}, \"21\": {\"H\": 1}, \"22\": {\"H\": 1}, \"23\": {\"H\": 1}, \"24\": {\"H\": 1}, \"25\": {\"H\": 1}, \"26\": {\"H\": 1}, \"27\": {\"H\": 1}, \"28\": {\"H\": 1}, \"29\": {\"H\": 1}, \"30\": {\"H\": 1}, \"31\": {\"H\": 1}, \"32\": {\"H\": 1}, \"33\": {\"H\": 1}, \"34\": {\"C\": 1}, \"35\": {\"C\": 1}, \"36\": {\"C\": 1}, \"37\": {\"C\": 1}, \"38\": {\"C\": 1}, \"39\": {\"C\": 1}, \"40\": {\"C\": 1}, \"41\": {\"C\": 1}, \"42\": {\"C\": 1}, \"43\": {\"C\": 1}, \"44\": {\"C\": 1}, \"45\": {\"C\": 1}, \"46\": {\"C\": 1}, \"47\": {\"C\": 1}, \"48\": {\"C\": 1}, \"49\": {\"C\": 1}, \"50\": {\"C\": 1}, \"51\": {\"C\": 1}, \"52\": {\"C\": 1}, \"53\": {\"C\": 1}, \"54\": {\"C\": 1}, \"55\": {\"C\": 1}, \"56\": {\"C\": 1}, \"57\": {\"C\": 1}, \"58\": {\"C\": 1}, \"59\": {\"C\": 1}, \"60\": {\"C\": 1}, \"61\": {\"C\": 1}, \"62\": {\"C\": 1}, \"63\": {\"C\": 1}, \"64\": {\"C\": 1}, \"65\": {\"C\": 1}, \"66\": {\"C\": 1}, \"67\": {\"C\": 1}, \"68\": {\"C\": 1}, \"69\": {\"C\": 1}, \"70\": {\"C\": 1}, \"71\": {\"C\": 1}, \"72\": {\"C\": 1}, \"73\": {\"C\": 1}, \"74\": {\"C\": 1}, \"75\": {\"C\": 1}, \"76\": {\"N\": 1}, \"77\": {\"N\": 1}, \"78\": {\"O\": 1}, \"79\": {\"O\": 1}, \"80\": {\"O\": 1}, \"81\": {\"O\": 1}, \"82\": {\"O\": 1}, \"83\": {\"O\": 1}, \"84\": {\"O\": 1}, \"85\": {\"O\": 1}, \"86\": {\"O\": 1}, \"87\": {\"O\": 1}, \"88\": {\"O\": 1}, \"89\": {\"O\": 1}, \"90\": {\"O\": 1}, \"91\": {\"O\": 1}}" energy=-619.4818115234375 free_energy=-619.4818115234375 stress="-0.004813637118786573 0.0013094517635181546 -0.0020763573702424765 0.0013094517635181546 -0.009898985736072063 -0.0023696329444646835 -0.0020763573702424765 -0.0023696329444646835 -0.005599659401923418" pbc="T T T"
Cd       3.40203418       3.81590167       2.94337728        0      -0.35728481      -0.06698319      -0.10132059
Cd       2.80190676       1.82230450       8.42837949        1       0.35060441      -0.15394323       0.18977633
H        3.75219974       1.32868070       3.40706092        2      -0.51347172      -0.80744690      -0.72629321
H        2.39325140       4.26407591       8.01665998        3       0.46759850       0.75204992       0.44486624
H        4.20880290       1.72593146       4.90904952        4       0.28130177       0.19817424      -1.21256614
H        1.92176841       3.89690863       6.50763571        5       0.15114377       0.06821206      -0.14386147
H        5.18971392      -0.07386241      10.34542887        6      -0.06504520      -0.02742741      -0.04362475
H        1.01081836       5.67538524       1.03312517        7       0.40001422       0.23999593       0.19251135
H       -1.06864781       5.44053594       2.38170352        8      -0.00120285       0.20204282       0.68999469
H        7.27014321       0.14378149       9.00736211        9      -0.07445314      -0.04163287      -0.07987423
H        3.52083279      -1.76344239      11.01136018       10       0.79322612       1.54832387       0.77535295
H        2.62192963       7.33073588       0.38467154       11       0.49115664       0.53439277       0.27577093
H       -1.16320877       4.38449260       8.72413425       12       0.27886868       0.17411540       0.06268325
H        7.31034539       1.19748824       2.69670155       13       0.73900253       1.14483809       0.69677246
H        0.09638823       5.15778351       6.45259558       14       0.10716207       0.84695715      -0.42636847
H        6.04951312       0.38807303       4.93845769       15      -0.14978921       1.21127939      -0.59285367
H        0.13150252       2.45259735       0.04064029       16       0.21681118       2.31965446       0.10076158
H        5.99230820       3.12261435      11.34852156       17       0.21613228       0.68616921       0.02837290
H       -0.04942930      -2.08657094       8.10670900       18      -0.75702345       1.42935979       0.33529004
H        6.22362085       7.63933636       3.27153833       19       0.01190432       0.14255106       0.12711631
H       -2.37817694       5.91503296       7.68459543       20       0.79681945       0.70732242      -0.28697309
H        8.52859408      -0.34133569       3.73654582       21       0.69122314       0.86164469       0.19998689
H       -0.70184110       8.34703473       1.46275675       22      -0.13716432       0.10855135      -0.13719293
H        6.89775098      -2.76704183       9.91714573       23      -0.39857271       0.63765508      -0.43551955
H        1.89330210      -1.30120978       9.20366466       24      -0.30079156       1.62249827      -0.39389017
H        4.25382020       6.87646595       2.17232722       25       0.13114004       0.10944088      -0.02010397
H        0.54871877      -0.58708036       6.45915612       26      -0.08743581       0.37499237       0.01112173
H        5.60479539       6.18450550       4.90962081       27       0.66085970      -0.83126152      -0.39769134
H        0.47809717       3.71187821      10.44941027       28       0.03959771       0.94394600      -0.24773407
H        5.66499688       1.85320337       0.96538062       29      -0.24224275       1.84336829      -0.35290980
H        1.17090289       7.97885828       3.36169703       30       0.07800984       0.28416604      -0.11920959
H        5.00201569      -2.43441993       8.01132640       31       0.47321707       0.36654106      -0.70362794
H        1.87282331      -0.03059186       4.38265902       32      -0.20705196       1.80122995      -0.84603584
H        4.31592420       5.57164427       7.01425222       33      -0.06285236       1.19976246      -0.52884501
C        6.93689133       4.72568953       0.73744722       34       0.81420153       0.31337708       0.43704903
C       -0.75296791       0.92219651      10.63314123       35      -0.51885480       0.00293816       0.14381261
C        1.08357785       5.79076459      10.88048051       36       0.60100520       0.12232290       0.51211923
C        5.11415217      -0.15202898       0.51160532       37      -0.65408015      -0.46401638      -0.81049037
C        6.10792973       0.28353835      10.80435696       38      -0.88155538      -0.08040091       0.39597398
C        0.09565553       5.36492855       0.56314147       39      -0.88818264      -0.45801428       0.24270099
C       -0.86028200       7.11212151       6.54987776       40      -0.17651954       0.13861844      -0.09799990
C        7.05838942      -1.47615682       4.82700703       41       0.51406574      -1.25104547       0.14886414
C        5.71640916       4.56936325       1.57752234       42      -0.84424663      -1.51459122      -2.09149218
C        0.48892799       1.07820714       9.80929366       43      -0.53747487      -0.65875721      -0.09977201
C       -1.07490920       5.20790640       1.33887964       44       0.35671639      -0.16495582      -1.35427094
C        7.24791254       0.41638422      10.05928286       45       1.11780667       0.26949638      -0.38233647
C        0.75199942       6.50678327       4.84161796       46      -0.29088888       0.10249794       0.31981033
C        5.44107070      -0.86998353       6.53455707       47       0.18628523      -0.19582009       0.01130646
C        3.04226943      -2.54510741      10.52405108       48      -0.91641718      -1.84950590      -0.92395556
C        3.16419912       8.17645642       0.85348029       49      -0.61922628       0.27123439      -0.27046305
C        0.91898429       0.65540681       0.84801252       50       0.05697498       0.09481077      -0.22340526
C        5.27166166       4.97879130      10.53202978       51       0.23291433       0.35046592      -0.01361032
C        1.69272600       5.53647988       4.25329002       52       1.03695202      -0.71129990      -0.56418741
C        4.48238346       0.11455173       7.11933205       53      -0.05036297      -1.26393962       1.02521706
C       -0.53507766       5.12721008       9.23108385       54      -0.31748319       0.08034542      -0.14925529
C        6.73667853       0.51255476       2.15184031       55      -0.79459572      -1.84491539      -0.68773532
C        0.01750557       6.17409118       5.98646693       56      -0.32886854      -0.60427248       0.40154257
C        6.18746046      -0.55459513       5.39036427       57       0.03609246      -0.86661649       0.61086500
C        0.10077726       1.42460229       0.00785117       58      -0.41671017      -2.56834745      -0.23651737
C        6.10604716       4.22715917      11.36960140       59      -0.47715345      -0.97926825      -0.17610034
C       -1.65726765       6.78775430       7.78544568       60       0.23333341      -2.19707108       0.26423031
C        7.85488831      -1.15159681       3.58562912       61      -0.76958555      -1.13483739      -0.46576703
C       -1.35234407       8.93156957       0.80478259       62       0.23904340       0.30858740       0.29875070
C        7.55747820      -3.29866526      10.56367854       63       0.37951291      -0.76779521       0.47600931
C        1.92196337       1.34572677       1.74509840       64      -0.52357268      -2.34651089      -0.53052044
C        4.28145088       4.29770483       9.62435052       65       0.78741914      -0.07879172       0.92062747
C        2.12525064      -2.26183939       9.53517899       66       0.53194958      -1.40923691       0.50529683
C        4.07312903       7.89668313       1.83868044       67      -0.16554375      -0.68400073       0.08641022
C        1.22902514      -1.28301944       5.98618953       68       0.22798923      -0.53674090      -0.20517674
C        4.97521316       6.88895980       5.38820959       69      -0.82810205       1.98641169       0.14099069
C        0.37283284       4.79414992      10.20048986       70      -0.20814538      -0.96976304       0.26823136
C        5.82811862       0.84992756       1.17334509       71       0.68487537      -1.87823868       0.82631212
C        0.60699109       7.78080486       4.26605197       72       0.04185415      -0.37180811      -0.04567887
C        5.59532131      -2.13660414       7.11008864       73      -0.48226100      -0.60015810       0.79246306
C        1.95236247      -0.96273070       4.83170894       74       0.16738589      -1.71472168       1.01147377
C        4.25186044       6.59856415       6.53414982       75      -0.20118490      -1.16501546       0.66688782
N       -0.74697830       6.43299649       8.89963666       76      -0.48322254      -0.40797818      -0.33799019
N        6.95114901      -0.81620050       2.48006289       77       0.35891157       1.45294428      -0.04098135
O        2.21723424       5.79958071       3.10539754       78      -0.31994149      -0.15153217       0.47225404
O        3.97810664      -0.19517289       8.27122644       79       0.11205566       0.80586731      -0.78523499
O        4.77347604       3.81326956       1.09398214       80       0.37002930       0.31705263      -0.07526043
O        1.41383019       1.82497591      10.27342213       81       0.19587380      -0.07813892      -0.14605738
O        2.03195619       4.45231588       4.87682037       82      -0.23075771       0.46023503      -0.19155309
O        4.17389941       1.16888114       6.49109937       83      -0.39320493       0.71837109      -0.07690355
O        5.58671052       5.09705070       2.68494896       84       0.24590357       1.14227486       2.12207222
O        0.56378906       0.44591068       8.70384322       85       0.32853642       0.51654166       0.07161465
O        2.77489381       0.56992568       2.27382418       86       0.23125470       0.40906757       0.46446115
O        3.38164696       4.97351297       9.10113156       87      -0.90147841       1.26613665      -0.76509786
O        1.78737484       2.57796130       1.88830212       88       0.14524202       1.93010831       0.44784915
O        4.41133826       3.04389166       9.48635754       89       0.31801948      -1.31119990      -0.17738201
O        4.35908257       1.91496447       3.90417524       90       0.36060828       0.73891568       1.94378078
O        1.82798122       3.67402930       7.46920947       91      -0.71460128      -0.94985682      -0.43766284
92
Lattice="9.19218081 0.0 0.0 -2.200716650774367 9.681700125141564 0.0 -0.8442899191014714 -4.0869384101251605 11.424811513954154" Properties=species:S:1:pos:R:3:spacegroup_kinds:I:1:forces:R:3 spacegroup="P 1" unit_cell=conventional occupancy="_JSON {\"0\": {\"Cd\": 1}, \"1\": {\"Cd\": 1}, \"2\": {\"H\": 1}, \"3\": {\"H\": 1}, \"4\": {\"H\": 1}, \"5\": {\"H\": 1}, \"6\": {\"H\": 1}, \"7\": {\"H\": 1}, \"8\": {\"H\": 1}, \"9\": {\"H\": 1}, \"10\": {\"H\": 1}, \"11\": {\"H\": 1}, \"12\": {\"H\": 1}, \"13\": {\"H\": 1}, \"14\": {\"H\": 1}, \"15\": {\"H\": 1}, \"16\": {\"H\": 1}, \"17\": {\"H\": 1}, \"18\": {\"H\": 1}, \"19\": {\"H\": 1}, \"20\": {\"H\": 1}, \"21\": {\"H\": 1}, \"22\": {\"H\": 1}, \"23\": {\"H\": 1}, \"24\": {\"H\": 1}, \"25\": {\"H\": 1}, \"26\": {\"H\": 1}, \"27\": {\"H\": 1}, \"28\": {\"H\": 1}, \"29\": {\"H\": 1}, \"30\": {\"H\": 1}, \"31\": {\"H\": 1}, \"32\": {\"H\": 1}, \"33\": {\"H\": 1}, \"34\": {\"C\": 1}, \"35\": {\"C\": 1}, \"36\": {\"C\": 1}, \"37\": {\"C\": 1}, \"38\": {\"C\": 1}, \"39\": {\"C\": 1}, \"40\": {\"C\": 1}, \"41\": {\"C\": 1}, \"42\": {\"C\": 1}, \"43\": {\"C\": 1}, \"44\": {\"C\": 1}, \"45\": {\"C\": 1}, \"46\": {\"C\": 1}, \"47\": {\"C\": 1}, \"48\": {\"C\": 1}, \"49\": {\"C\": 1}, \"50\": {\"C\": 1}, \"51\": {\"C\": 1}, \"52\": {\"C\": 1}, \"53\": {\"C\": 1}, \"54\": {\"C\": 1}, \"55\": {\"C\": 1}, \"56\": {\"C\": 1}, \"57\": {\"C\": 1}, \"58\": {\"C\": 1}, \"59\": {\"C\": 1}, \"60\": {\"C\": 1}, \"61\": {\"C\": 1}, \"62\": {\"C\": 1}, \"63\": {\"C\": 1}, \"64\": {\"C\": 1}, \"65\": {\"C\": 1}, \"66\": {\"C\": 1}, \"67\": {\"C\": 1}, \"68\": {\"C\": 1}, \"69\": {\"C\": 1}, \"70\": {\"C\": 1}, \"71\": {\"C\": 1}, \"72\": {\"C\": 1}, \"73\": {\"C\": 1}, \"74\": {\"C\": 1}, \"75\": {\"C\": 1}, \"76\": {\"N\": 1}, \"77\": {\"N\": 1}, \"78\": {\"O\": 1}, \"79\": {\"O\": 1}, \"80\": {\"O\": 1}, \"81\": {\"O\": 1}, \"82\": {\"O\": 1}, \"83\": {\"O\": 1}, \"84\": {\"O\": 1}, \"85\": {\"O\": 1}, \"86\": {\"O\": 1}, \"87\": {\"O\": 1}, \"88\": {\"O\": 1}, \"89\": {\"O\": 1}, \"90\": {\"O\": 1}, \"91\": {\"O\": 1}}" energy=-618.3629150390625 free_energy=-618.3629150390625 stress="-0.010406823828816414 0.0037289801985025406 -0.006879652384668589 0.0037289801985025406 -0.029130542650818825 -0.004609803669154644 -0.006879652384668589 -0.004609803669154644 -0.008021381683647633" pbc="T T T"
Cd       3.43123105       3.78610610       2.91487018        0      -0.60052955      -0.13455915      -0.22052608
Cd       2.83074058       1.82385769       8.40084065        1       0.26942295      -0.22649696       0.21230870
H        3.72602187       1.35606697       3.43684814        2      -2.34712505      -2.52930975      -1.96020293
H        2.41923531       4.25024826       7.99604897        3       0.61838853       0.92842937       0.66016960
H        4.17890047       1.75191348       4.93872792        4       0.45869452      -0.01356740      -2.07356834
H        1.93444434       3.89179694       6.51095452        5       0.15385211       0.14438981      -0.73012036
H        5.19695651      -0.05446308      10.36721469        6      -0.19187486      -0.22682250      -0.47182336
H        1.01724547       5.64553818       1.00366643        7       1.29585755       0.56765413       0.62867731
H       -1.09146934       5.41161929       2.35849304        8       0.23419701       0.16975932       0.46048987
H        7.29792455       0.11856871       8.97741686        9      -0.05256611       0.28755969       0.34433252
H        3.54938637      -1.79320915      10.98252288       10       0.75026345       1.48013520       0.75246662
H        2.60277659       7.35877202       0.41381938       11      -0.08465949      -0.67096889      -0.33540314
H       -1.18265010       4.40494932       8.74929858       12       0.09723589      -0.32657287      -0.24252608
H        7.30030104       1.16750829       2.67202453       13       1.21787620       1.66089678       1.14796138
H        0.06724633       5.18182608       6.46266779       14       0.44519067       0.71389806      -0.70227236
H        6.07447741       0.35847212       4.90880085       15      -0.15107764       1.19728434      -0.58017755
H        0.15530221       2.42273406       0.01956923       16       0.19931531       2.36183262       0.08458642
H        5.96237494       3.14453359      11.36941294       17       0.31479487      -0.50456887       0.01633070
H       -0.02094156      -2.11497292       8.08147304       18      -0.74853772       1.86797082       0.42718774
H        6.21862401       7.64837283       3.28832179       19       1.17938006      -1.63889194      -0.61416698
H       -2.40447497       5.94135213       7.71125591       20       0.97230715       0.41588706      -0.57558697
H        8.55752975      -0.37059036       3.70702028       21       0.66723347       0.86983395       0.20498475
H       -0.72870960       8.34561863       1.43794202       22       0.42396194      -0.21754956       0.35505682
H        6.91151986      -2.76978607       9.89192221       23       0.04141866       0.18462971      -0.03714374
H        1.91949361      -1.33097899       9.17920192       24      -0.29814327       1.65857315      -0.40879920
H        4.22414378       6.89899867       2.19380418       25       0.36998266      -1.28677857       0.34691507
H        0.55089676      -0.61652721       6.43311578       26       0.09038538       0.40186161      -0.13189843
H        5.58368818       6.18880868       4.89694731       27       2.09436202      -2.46863866      -1.47621179
H        0.45188015       3.73313247      10.46446210       28       0.23665284      -0.41036054      -0.07309598
H        5.69118829       1.82330482       0.93595324       29      -0.28870130       1.90602612      -0.33806676
H        1.20065731       7.95101088       3.33263021       30       0.05024586       0.31460482      -0.12517141
H        4.97754323      -2.44075238       8.03118074       31       1.26162171       0.47958070      -1.79004514
H        1.90133353      -0.06030451       4.35284727       32      -0.20659043       1.79533267      -0.88960528
H        4.28656295       5.58996268       7.04409540       33       0.28809410       0.56776744      -0.66395819
C        6.96643240       4.69745364       0.70873651       34       0.88029426       0.38104779       0.61052603
C       -0.72378445       0.89809151      10.60613592       35      -0.26717901       0.80473286       0.60091060
C        1.09631625       5.76107867      10.85236046       36       1.05970013       0.19977975       0.72563422
C        5.13960062      -0.18165259       0.48169077       37      -0.72481120      -0.41328955      -0.84367192
C        6.13760816       0.27299548      10.77795182       38      -0.73381877       0.21612994       0.55434942
C        0.12374724       5.36017695       0.53652709       39      -1.83988690      -1.05300474      -0.10874256
C       -0.83056515       7.08272733       6.52489308       40      -0.76648939       1.65048146      -0.22547409
C        7.08646728      -1.50528350       4.79733447       41       0.31318766      -1.07329476       0.27419430
C        5.74560149       4.53960247       1.54791590       42      -1.35440207      -1.58675671      -1.89846730
C        0.51887225       1.07797340       9.78002775       43      -1.33059669      -0.98419768       0.67117018
C       -1.04525326       5.17855096       1.30916958       44       0.19468734       0.05700498      -0.96184838
C        7.27680666       0.44477833      10.03107545       45       0.50667810      -0.68331271      -1.04484773
C        0.78083911       6.50679986       4.81276853       46       0.07249633      -1.02027655       0.46678701
C        5.46355246      -0.89992257       6.50496676       47       0.13716780      -0.16054270      -0.02775818
C        3.06632423      -2.57396656      10.49419581       48      -0.81220579      -1.78676426      -0.82846141
C        3.19132147       8.14659091       0.82488637       49      -0.07041666       1.45918894       0.40540016
C        0.94799001       0.63065742       0.82638673       50      -0.10939860       1.23927069      -0.76511520
C        5.30104611       4.95714899      10.50251816       51       0.21360931      -0.02017832      -0.10703278
C        1.72188655       5.51033011       4.22362452       52       0.81576842      -0.68138605      -0.07305925
C        4.51115070       0.08510038       7.08949627       53      -0.34893835      -0.18847960       0.76603067
C       -0.50584532       5.11269435       9.20697834       54      -0.42078042      -0.03670068      -0.00262374
C        6.76589353       0.48357598       2.12216055       55      -1.44573283      -2.34474134      -1.24239302
C        0.04286767       6.18559787       5.95883164       56      -0.10430096      -1.60564876       0.55535340
C        6.21535187      -0.58439802       5.36083343       57      -0.04135759      -0.82030439       0.64417422
C        0.13003545       1.39574943      -0.02182050       58      -0.49066818      -2.49086142      -0.29870388
C        6.13523418       4.20453496      11.34065407       59      -0.43311608       0.73637766       0.10519743
C       -1.62955369       6.77070977       7.75584213       60       0.12359053      -2.42839932       0.55194366
C        7.88450567      -1.18144990       3.55571517       61      -1.87924099       0.53925568       0.26462549
C       -1.32497955       8.94515355       0.77749819       62      -0.56416261      -1.41325748      -0.30504829
C        7.58681729      -3.32848927      10.53431059       63       0.03718230       0.09602956       0.13195910
C        1.95041831       1.31695829       1.71688494       64      -3.45318389       0.30285403      -1.92730188
C        4.30884204       4.26799417       9.59598345       65       0.42038155       1.37752473       0.95927280
C        2.15467336      -2.29179552       9.50569104       66       0.50594109      -1.21568406       0.41473371
C        4.10198719       7.87063226       1.81356727       67      -0.67072773       0.41569662      -0.39513323
C        1.25875759      -1.28915329       5.95694427       68       0.02409685      -1.20330167       0.15061903
C        4.99279508       6.86028254       5.35887422       69      -2.11468077       3.33730316       1.24899888
C        0.40081958       4.76442117      10.17105177       70      -0.57373691       0.33015123       0.13278082
C        5.84604712       0.82044644       1.14658977       71       0.95682341      -1.95009542       0.91587096
C        0.63511701       7.75392407       4.23675409       72       0.14872748       0.13172193      -0.38745150
C        5.61206212      -2.16632670       7.08212869       73      -1.10481489      -0.49404746       1.64657807
C        1.97995363      -0.99257829       4.80183833       74      -0.04797477      -1.19765651       1.07517445
C        4.27445980       6.57029294       6.50828868       75      -0.69416296      -0.57848358       0.95081222
N       -0.71959166       6.40578701       8.87041206       76      -0.38540503       0.01027392      -0.33017069
N        6.97892514      -0.84612915       2.45043584       77       0.53969675       1.72739589      -0.03800291
O        2.24596980       5.76970528       3.08458156       78      -0.22131205       0.00262834       0.13461284
O        4.00692753      -0.18052032       8.24850194       79       0.16615826       0.49005347      -0.77925318
O        4.78973382       3.78405553       1.06422160       80       0.76036292       0.43390203      -0.11947900
O        1.43581156       1.80841177      10.26894887       81       0.56041676       0.01385704      -0.51718163
O        2.05951464       4.42239556       4.84883030       82      -0.36932996       0.69584626      -0.17986375
O        4.20364779       1.16302340       6.46405315       83      -0.19518366       0.10623147       0.17469132
O        5.58932033       5.06715751       2.65701513       84       0.51270449       1.10404253       1.86114800
O        0.53699432       0.42711154       8.69731053       85       0.98661458       0.49565965      -0.66338933
O        2.74553771       0.59749079       2.25662991       86       3.39637256      -2.50564241       2.29958558
O        3.39848632       4.94525478       9.07341672       87      -0.60318452       1.16137648      -0.59517598
O        1.77453554       2.54868645       1.86400266       88       0.25192499       2.45958877       0.40554005
O        4.43970057       3.03770046       9.46094776       89       0.50468588      -2.62701821      -0.30378687
O        4.33195691       1.88504705       3.88925879       90       2.22464585       2.51103497       4.17858982
O        1.83026891       3.68191046       7.46051074       91      -0.90364486      -1.24193609      -0.10892299
92
Lattice="9.19218081 0.0 0.0 -2.200716650774367 9.681700125141564 0.0 -0.8442899191014714 -4.0869384101251605 11.424811513954154" Properties=species:S:1:pos:R:3:spacegroup_kinds:I:1:forces:R:3 spacegroup="P 1" unit_cell=conventional occupancy="_JSON {\"0\": {\"Cd\": 1}, \"1\": {\"Cd\": 1}, \"2\": {\"H\": 1}, \"3\": {\"H\": 1}, \"4\": {\"H\": 1}, \"5\": {\"H\": 1}, \"6\": {\"H\": 1}, \"7\": {\"H\": 1}, \"8\": {\"H\": 1}, \"9\": {\"H\": 1}, \"10\": {\"H\": 1}, \"11\": {\"H\": 1}, \"12\": {\"H\": 1}, \"13\": {\"H\": 1}, \"14\": {\"H\": 1}, \"15\": {\"H\": 1}, \"16\": {\"H\": 1}, \"17\": {\"H\": 1}, \"18\": {\"H\": 1}, \"19\": {\"H\": 1}, \"20\": {\"H\": 1}, \"21\": {\"H\": 1}, \"22\": {\"H\": 1}, \"23\": {\"H\": 1}, \"24\": {\"H\": 1}, \"25\": {\"H\": 1}, \"26\": {\"H\": 1}, \"27\": {\"H\": 1}, \"28\": {\"H\": 1}, \"29\": {\"H\": 1}, \"30\": {\"H\": 1}, \"31\": {\"H\": 1}, \"32\": {\"H\": 1}, \"33\": {\"H\": 1}, \"34\": {\"C\": 1}, \"35\": {\"C\": 1}, \"36\": {\"C\": 1}, \"37\": {\"C\": 1}, \"38\": {\"C\": 1}, \"39\": {\"C\": 1}, \"40\": {\"C\": 1}, \"41\": {\"C\": 1}, \"42\": {\"C\": 1}, \"43\": {\"C\": 1}, \"44\": {\"C\": 1}, \"45\": {\"C\": 1}, \"46\": {\"C\": 1}, \"47\": {\"C\": 1}, \"48\": {\"C\": 1}, \"49\": {\"C\": 1}, \"50\": {\"C\": 1}, \"51\": {\"C\": 1}, \"52\": {\"C\": 1}, \"53\": {\"C\": 1}, \"54\": {\"C\": 1}, \"55\": {\"C\": 1}, \"56\": {\"C\": 1}, \"57\": {\"C\": 1}, \"58\": {\"C\": 1}, \"59\": {\"C\": 1}, \"60\": {\"C\": 1}, \"61\": {\"C\": 1}, \"62\": {\"C\": 1}, \"63\": {\"C\": 1}, \"64\": {\"C\": 1}, \"65\": {\"C\": 1}, \"66\": {\"C\": 1}, \"67\": {\"C\": 1}, \"68\": {\"C\": 1}, \"69\": {\"C\": 1}, \"70\": {\"C\": 1}, \"71\": {\"C\": 1}, \"72\": {\"C\": 1}, \"73\": {\"C\": 1}, \"74\": {\"C\": 1}, \"75\": {\"C\": 1}, \"76\": {\"N\": 1}, \"77\": {\"N\": 1}, \"78\": {\"O\": 1}, \"79\": {\"O\": 1}, \"80\": {\"O\": 1}, \"81\": {\"O\": 1}, \"82\": {\"O\": 1}, \"83\": {\"O\": 1}, \"84\": {\"O\": 1}, \"85\": {\"O\": 1}, \"86\": {\"O\": 1}, \"87\": {\"O\": 1}, \"88\": {\"O\": 1}, \"89\": {\"O\": 1}, \"90\": {\"O\": 1}, \"91\": {\"O\": 1}}" energy=-616.631103515625 free_energy=-616.631103515625 stress="-0.01420882623642683 0.005588640458881855 -0.011092178523540497 0.005588640458881855 -0.04253854230046272 -0.0048921843990683556 -0.011092178523540497 -0.0048921843990683556 -0.014199274592101574" pbc="T T T"
Cd       3.45861421       3.76257762       2.88778809        0      -0.70985389      -0.25368953      -0.25524843
Cd       2.85092478       1.79481605       8.37387030        1       0.28053451      -0.14535673       0.27305424
H        3.70886434       1.32877566       3.46667499        2      -2.49737763      -2.56844306      -2.10683155
H        2.43490333       4.22736015       7.98394347        3       0.49081564       0.76615608       0.65229881
H        4.15044671       1.72416391       4.96394002        4       0.99694288       0.10416557      -2.81423330
H        1.95117279       3.89091202       6.53753394        5       0.35561106       0.62415969      -3.11614227
H        5.19823778      -0.02963839      10.37500781        6      -0.30249417      -0.41411912      -0.76231539
H        1.02570974       5.61614654       0.97408149        7       2.02890420       0.80061764       0.96862268
H       -1.12126436       5.38338322       2.33014588        8       0.48975050       0.19965798       0.39720127
H        7.32665358       0.11421067       8.95251754        9      -0.10676807       0.18076499       0.15267080
H        3.55508625      -1.82096961      10.95493169       10       0.95881653       1.75365126       0.94450682
H        2.60622994       7.36754920       0.42922525       11      -0.76047027      -1.69551539      -0.84763277
H       -1.19217141       4.43239155       8.77877700       12      -0.48676747      -1.16646862      -0.71416599
H        7.31260019       1.13761163       2.64334045       13       1.16782999       1.69495678       1.11018777
H        0.04454468       5.18986063       6.48120578       14       0.73632479       0.21958777      -0.83087075
H        6.09841438       0.32891603       4.87941840       15      -0.15030742       1.17653418      -0.57324612
H        0.18403774       2.39299239      -0.01027640       16       0.20239353       2.34671235       0.12603188