77
Lattice="9.59895175 0.0 0.0 4.623399778113763 9.190346040402943 0.0 4.407113578340553 1.798465400313876 9.802715206794968" Properties=species:S:1:pos:R:3:spacegroup_kinds:I:1:forces:R:3 spacegroup="P 1" unit_cell=conventional occupancy="_JSON {\"0\": {\"Cu\": 1}, \"1\": {\"Cu\": 1}, \"2\": {\"H\": 1}, \"3\": {\"H\": 1}, \"4\": {\"H\": 1}, \"5\": {\"H\": 1}, \"6\": {\"H\": 1}, \"7\": {\"H\": 1}, \"8\": {\"H\": 1}, \"9\": {\"H\": 1}, \"10\": {\"H\": 1}, \"11\": {\"H\": 1}, \"12\": {\"H\": 1}, \"13\": {\"H\": 1}, \"14\": {\"H\": 1}, \"15\": {\"H\": 1}, \"16\": {\"H\": 1}, \"17\": {\"H\": 1}, \"18\": {\"H\": 1}, \"19\": {\"H\": 1}, \"20\": {\"H\": 1}, \"21\": {\"H\": 1}, \"22\": {\"H\": 1}, \"23\": {\"H\": 1}, \"24\": {\"H\": 1}, \"25\": {\"H\": 1}, \"26\": {\"C\": 1}, \"27\": {\"C\": 1}, \"28\": {\"C\": 1}, \"29\": {\"C\": 1}, \"30\": {\"C\": 1}, \"31\": {\"C\": 1}, \"32\": {\"C\": 1}, \"33\": {\"C\": 1}, \"34\": {\"C\": 1}, \"35\": {\"C\": 1}, \"36\": {\"C\": 1}, \"37\": {\"C\": 1}, \"38\": {\"C\": 1}, \"39\": {\"C\": 1}, \"40\": {\"C\": 1}, \"41\": {\"C\": 1}, \"42\": {\"C\": 1}, \"43\": {\"C\": 1}, \"44\": {\"C\": 1}, \"45\": {\"C\": 1}, \"46\": {\"C\": 1}, \"47\": {\"C\": 1}, \"48\": {\"C\": 1}, \"49\": {\"C\": 1}, \"50\": {\"C\": 1}, \"51\": {\"C\": 1}, \"52\": {\"C\": 1}, \"53\": {\"C\": 1}, \"54\": {\"C\": 1}, \"55\": {\"C\": 1}, \"56\": {\"C\": 1}, \"57\": {\"C\": 1}, \"58\": {\"C\": 1}, \"59\": {\"C\": 1}, \"60\": {\"C\": 1}, \"61\": {\"N\": 1}, \"62\": {\"N\": 1}, \"63\": {\"O\": 1}, \"64\": {\"O\": 1}, \"65\": {\"O\": 1}, \"66\": {\"O\": 1}, \"67\": {\"O\": 1}, \"68\": {\"O\": 1}, \"69\": {\"O\": 1}, \"70\": {\"O\": 1}, \"71\": {\"O\": 1}, \"72\": {\"O\": 1}, \"73\": {\"O\": 1}, \"74\": {\"O\": 1}, \"75\": {\"O\": 1}, \"76\": {\"O\": 1}}" energy=-528.2314453125 free_energy=-528.2314453125 stress="-0.011920642107725143 0.0012216521427035332 -3.854076931020245e-05 0.0012216521427035332 3.315192225272767e-05 -0.0014928152086213231 -3.854076931020245e-05 -0.0014928152086213231 -0.0030208297539502382" pbc="T T T"
Cu      12.87117648       5.40884181       4.94652962        0      -0.36332089      -0.16915035      -0.19427109
Cu       5.80138979       5.57553160       4.88524751        1      -0.14032644       0.33509493      -0.08604532
H        6.75425451       4.75118164       8.96241711        2       0.95959032       0.39027655      -0.30175710
H       11.86147628       6.22442923       0.80894051        3      -1.36585939      -0.51789796       0.62930828
H        2.48915805       2.26015341       1.54702810        4      -0.04760425      -0.21400446       0.31100810
H       16.11177968       8.76460935       8.24622900        5       0.96512163       0.09591125       0.41472867
H       10.08617858       1.25253275       2.64648974        6      -0.17488301       0.11976569       0.00903060
H        8.54480684       9.74368440       7.11203972        7       0.05112921      -0.54286945       1.29600775
H        7.96736809       1.03809809       1.40999592        8      -0.53764671      -0.30521896       0.33587742
H       10.67338679       9.91538943       8.42582786        9      -0.27119514      -0.05260144      -0.01866232
H       12.23930676       3.58444306       8.85372357       10      -0.89493668      -0.11691207      -0.57731342
H        6.40513556       7.42310762       0.98140484       11       0.23121651      -0.08427873       0.15335013
H        2.59801306       1.27031145       3.82224898       12       0.81638825      -0.25463557      -0.11729440
H       16.03250706       9.73249652       5.92598965       13      -0.15822580       0.18639085       0.10685343
H        7.39234410       8.07371817       3.17412117       14      -0.63749743      -0.43868569      -0.04563516
H       11.22450441       2.91677995       6.60991437       15      -0.24672635       0.15426137       0.07971527
H        9.65584254       7.07048276       2.75240672       16       0.00485256      -0.96876764      -0.36538547
H        8.98305489       3.95010040       7.10425561       17       0.22767992      -1.57242274      -0.50365138
H       11.66503370       8.38866220       2.99219763       18       0.35865241       0.08503516       0.10597837
H        6.94686140       2.58907187       6.77099044       19       0.14051269      -0.05738409       0.11436768
H        6.89167171       1.62209125       3.63642381       20       0.25109240       0.30322292       0.01247539
H       11.74349885       9.32092894       6.14927474       21       0.28240973       0.09214093       0.10499866
H       10.56948552       4.05273697       3.35999371       22      -0.31042233       0.13041526       0.19686393
H        8.09644700       6.92854671       6.42242741       23       0.11574212      -0.24685362      -0.08508024
H        7.99005761       4.26277208       3.23102189       24       0.69238651       0.33484119       0.65622783
H       10.63259966       6.70492765       6.52273888       25       0.26639172       0.54082727       0.56680846
C       13.08609284       7.08597064       9.73260127       26      -2.58512735       0.36774516      -3.91694641
C        5.53002675       3.87276627       0.07736339       27       2.11658311      -0.16341953       2.96099758
C        9.42358347       9.18656339      -0.00296264       28       0.76829839       0.89912301       0.10372250
C       14.23810918       4.67893886       7.35053448       29      -2.06308913       0.04669708      -0.50016892
C        4.39375208       6.31828630       2.45251436       30       0.43555748      -0.88552296       2.20894790
C       14.32028517       4.23514804       8.77667609       31      -2.28875732      -0.58895946      -0.50324070
C        4.30969482       6.76388613       1.06245543       32       0.76182508       0.34745574      -0.60020685
C        5.90406952       4.35413559       9.45333299       33      -0.23112556      -1.10293949       2.79025555
C       12.69679402       6.65465020       0.35031947       34       2.03894663       0.83657044      -1.41734409
C        1.54186584       2.10442755       1.03657738       35       0.97901666       1.59185886      -2.83403277
C       17.09123382       8.86511065       8.79705474       36      -3.01619124      -1.12702012       1.08097720
C       10.00644814       1.61529363       1.61335777       37       0.96920443      -0.83885241       1.94636583
C        8.59076158       9.36962159       8.19348070       38       0.70416939       1.26050532      -2.46947718
C        8.83605594       1.44496326       0.93785251       39      -1.07622159       0.58262396      -2.27992964
C        9.76873347       9.50394380       8.89210254       40       1.73506784      -0.04861423       1.30906165
C       13.14309940       3.66903299       9.39634861       41       2.22951269       0.30333126       1.11168039
C        5.48502754       7.28440285       0.43702193       42      -1.71595192       0.22591755      -1.07520509
C        4.60413546       3.05890127       4.16545329       43       3.75237083      -1.67121041      -0.59662133
C       13.97163754       7.93194538       5.67305269       44       3.20423937       1.50512218      -0.08323077
C        4.74855128       1.58692426       3.77301805       45      -0.17424504       0.78014767       0.08908455
C       13.91065623       9.41481922       6.01725477       46      -0.36856323      -1.33035946       0.03922899
C        3.59996546       0.81665184       3.63212864       47      -1.04707336      -0.13039742       0.17303039
C       15.06308897      10.19062692       6.14335062       48      -0.17000420      -0.21428704      -0.14006868
C        8.28931364       8.64836167       3.26489052       49       0.65570766       0.76643896       0.01594498
C       10.29938397       2.33278867       6.53341577       50       2.89568567      -0.91998565      -0.55559158
C        9.53000181       8.08743023       3.01824928       51       1.58699036       2.03290796       0.71776628
C        9.08696562       2.85545409       6.76795094       52      -2.17638540       2.99315786       1.23579001
C       10.73315210       8.90308507       3.19307274       53      -1.75337029      -2.87242603      -1.00295210
C        7.92314968       2.10898642       6.65176375       54      -0.50397134      -1.11681068      -0.55202311
C        6.00631663       1.01590265       3.52059573       55      -0.03041586       1.30658925       0.64694357
C       12.64194133       9.93579535       6.27752927       56      -0.28441018       1.33413744       0.12404505
C        9.99190285       4.68235669       4.05258024       57       0.32204545      -0.34644938      -0.45342517
C        8.66042284       6.26426485       5.75455419       58      -1.62594402       1.00499105       0.13942087
C        8.61338672       4.79775001       3.99385672       59      -1.27671838      -0.67523265      -1.31173325
C       10.01657131       6.20502470       5.81328623       60       0.85745829      -1.34150457      -1.04048765
N       10.67638143       5.38824452       4.94182616       61       0.29659703       0.68443477       0.67215681
N        7.93631257       5.61028502       4.80898338       62       0.83456671      -0.10217831       0.74688250
O        9.39221461       5.26399601       0.83703634       63       1.18222451      -0.12218673       1.62048244
O        9.26549451       5.70513133       8.96890953       64      -2.89641166       0.15558363      -3.83455920
O       12.37241700       7.13632902       8.75612347       65       1.50551510      -0.15486591       2.26242542
O        6.22019660       3.84356254       1.01914528       66       0.67941111      -0.06649297       0.91655529
O       13.32197847       9.94629740       9.56308511       67       0.10832828       0.42424947       0.14550792
O        5.35729602       1.03068057       0.21695325       68      -0.89473981      -1.33362937      -0.23707178
O        5.71186590       4.98620866       6.78402831       69       1.10719156       0.19523375      -0.37913722
O       12.86892856       5.97347421       3.02760360       70       1.28323507       0.44193679      -0.37588930
O       13.05303422       4.73800203       6.77802263       71       1.24244392      -0.23947790       0.94339740
O        5.57949859       6.25917024       3.02654252       72      -1.85470510       0.19793536      -0.96830714
O        3.47544382       3.48444919       4.30663327       73      -3.36941290       1.53548062       0.50357318
O       15.16890240       7.45202629       5.50491480       74      -0.60058516       0.23747915       0.20557721
O        5.70869876       3.71349105       4.31722022       75      -0.21857971      -0.51329333      -0.08029471
O       12.91518164       7.32452757       5.53439239       76      -2.24471593      -1.37803698      -0.30038050
77
Lattice="9.59895175 0.0 0.0 4.623399778113763 9.190346040402943 0.0 4.407113578340553 1.798465400313876 9.802715206794968" Properties=species:S:1:pos:R:3:spacegroup_kinds:I:1:forces:R:3 spacegroup="P 1" unit_cell=conventional occupancy="_JSON {\"0\": {\"Cu\": 1}, \"1\": {\"Cu\": 1}, \"2\": {\"H\": 1}, \"3\": {\"H\": 1}, \"4\": {\"H\": 1}, \"5\": {\"H\": 1}, \"6\": {\"H\": 1}, \"7\": {\"H\": 1}, \"8\": {\"H\": 1}, \"9\": {\"H\": 1}, \"10\": {\"H\": 1}, \"11\": {\"H\": 1}, \"12\": {\"H\": 1}, \"13\": {\"H\": 1}, \"14\": {\"H\": 1}, \"15\": {\"H\": 1}, \"16\": {\"H\": 1}, \"17\": {\"H\": 1}, \"18\": {\"H\": 1}, \"19\": {\"H\": 1}, \"20\": {\"H\": 1}, \"21\": {\"H\": 1}, \"22\": {\"H\": 1}, \"23\": {\"H\": 1}, \"24\": {\"H\": 1}, \"25\": {\"H\": 1}, \"26\": {\"C\": 1}, \"27\": {\"C\": 1}, \"28\": {\"C\": 1}, \"29\": {\"C\": 1}, \"30\": {\"C\": 1}, \"31\": {\"C\": 1}, \"32\": {\"C\": 1}, \"33\": {\"C\": 1}, \"34\": {\"C\": 1}, \"35\": {\"C\": 1}, \"36\": {\"C\": 1}, \"37\": {\"C\": 1}, \"38\": {\"C\": 1}, \"39\": {\"C\": 1}, \"40\": {\"C\": 1}, \"41\": {\"C\": 1}, \"42\": {\"C\": 1}, \"43\": {\"C\": 1}, \"44\": {\"C\": 1}, \"45\": {\"C\": 1}, \"46\": {\"C\": 1}, \"47\": {\"C\": 1}, \"48\": {\"C\": 1}, \"49\": {\"C\": 1}, \"50\": {\"C\": 1}, \"51\": {\"C\": 1}, \"52\": {\"C\": 1}, \"53\": {\"C\": 1}, \"54\": {\"C\": 1}, \"55\": {\"C\": 1}, \"56\": {\"C\": 1}, \"57\": {\"C\": 1}, \"58\": {\"C\": 1}, \"59\": {\"C\": 1}, \"60\": {\"C\": 1}, \"61\": {\"N\": 1}, \"62\": {\"N\": 1}, \"63\": {\"O\": 1}, \"64\": {\"O\": 1}, \"65\": {\"O\": 1}, \"66\": {\"O\": 1}, \"67\": {\"O\": 1}, \"68\": {\"O\": 1}, \"69\": {\"O\": 1}, \"70\": {\"O\": 1}, \"71\": {\"O\": 1}, \"72\": {\"O\": 1}, \"73\": {\"O\": 1}, \"74\": {\"O\": 1}, \"75\": {\"O\": 1}, \"76\": {\"O\": 1}}" energy=-527.4310913085938 free_energy=-527.4310913085938 stress="-0.0017162486910820007 -0.0003028353094123304 0.005183638073503971 -0.0003028353094123304 -0.004637786187231541 -0.0016759238205850124 0.005183638073503971 -0.0016759238205850124 -0.004637524019926786" pbc="T T T"
Cu      12.85493200       5.40859333       4.95653103        0      -0.17561468      -0.35820517      -0.15063113
Cu       5.78632854       5.60145284       4.85805541        1      -0.15874869       0.04042372       0.19457546
H        6.73457847       4.72301655       8.95213351        2       2.18577099       1.02144432      -1.19574285
H       11.86470935       6.24620475       0.83618593        3      -1.54695463      -0.59390712       0.56451464
H        2.51580406       2.25627960       1.53137195        4      -0.00905293      -0.17112951       0.23168105
H       16.13813161       8.78240791       8.25274124        5       0.59760624      -0.05177243       0.29083297
H       10.11013571       1.23957804       2.62496484        6      -0.14985916      -0.04928754       0.45446086
H        8.57443246       9.72358615       7.11145407        7      -0.25006542      -0.61769998       1.51322031
H        7.95995594       1.06292092       1.38923512        8      -0.85064602      -0.46420938       0.65544248
H       10.64453295       9.93890005       8.44836941        9       0.47412249       0.16240418      -0.33368734
H       12.24427197       3.58382937       8.87496610       10      -2.29548740      -0.24511798      -1.43265879
H        6.43260693       7.44539947       0.98321473       11      -1.05228543      -0.30820215      -0.50309342
H        2.58766051       1.26778885       3.80544301       12       0.71767908      -0.04243008       0.03006270
H       16.02738553       9.70561486       5.91233674       13      -0.05337376       0.44413814       0.09100050
H        7.41825988       8.06226383       3.18283293       14      -0.92132592      -0.29057711      -0.00853598
H       11.22152710       2.89629215       6.63863740       15      -0.80435693      -0.11000639      -0.06675729
H        9.64304779       7.04948435       2.72824049       16      -0.08521342      -0.64610755      -0.24480560
H        8.98087253       3.92407195       7.12198043       17       0.37033230      -1.33252239      -0.40333039
H       11.68928413       8.41763454       2.98522510       18       0.41836864      -0.13812226      -0.04543076
H        6.92029911       2.59061232       6.74922107       19       0.59140754      -0.37908685       0.19213182
H        6.86421988       1.64775226       3.61452033       20       0.78080106       0.46768934       0.03444220
H       11.75513462       9.29640086       6.14948203       21       0.74664849       0.22477902       0.22469190
H       10.58088955       4.07904399       3.38605316       22       0.30122635      -0.60204339      -0.50842261
H        8.07380254       6.93216442       6.44917405       23       0.35120100      -0.78139883      -0.55623883
H        8.00569162       4.28490624       3.25111921       24       0.10362420      -0.20564537      -0.26391938
H       10.60518130       6.72995135       6.54300590       25       0.70588470       0.69024014       0.86577272
C       13.06192835       7.07316654       9.72588694       26       0.34370095       0.53618658      -0.79228079
C        5.53328939       3.85227817       0.10319268       27      -0.49472201       0.07035897      -1.23299885
C        9.41755524       9.16414652       0.02717350       28       1.35411334       1.57088041      -0.12444956
C       14.23854827       4.65752613       7.35328700       29      -2.81649780       0.41642523      -0.86905611
C        4.37262766       6.31536971       2.45736336       30       0.51745647      -0.94375557       2.93846726
C       14.29151117       4.22469846       8.78938526       31      -0.88384557      -0.20744964      -0.89426762
C        4.29131273       6.76037497       1.07939021       32       1.15436602       0.48831135      -1.34722710
C        5.91473599       4.36223519       9.44257886       33      -2.45207500      -1.80139935       3.10580015
C       12.70094585       6.64158326       0.35499876       34       2.03372002       0.89942741      -1.10499072
C        1.57105873       2.12392355       1.00957780       35      -0.18804163       0.78334194      -1.76502299
C       17.10980626       8.85508597       8.79663511       36      -4.67064762      -1.74648166       1.82166696
C       10.02238578       1.60809853       1.61213296       37       0.78322339      -0.10127525       0.18833634
C        8.56511473       9.34674570       8.20347468       38       4.08078003       2.27889276      -3.01560879
C        8.81919023       1.47471480       0.93019207       39       0.33423233       0.39867869      -1.22403407
C        9.78992117       9.49221343       8.91768331       40      -0.70758080       0.00581636      -0.62547231
C       13.11566987       3.67276824       9.39819445       41       3.74253988       0.71055377       1.63078785
C        5.47309390       7.28849648       0.41126058       42      -0.12037471      -0.18144476       1.91735351
C        4.62904215       3.03701674       4.18000130       43       2.40929556      -0.44262880      -0.52466714
C       13.97204373       7.93372569       5.69662833       44       4.18893337       1.63188815      -0.66986287
C        4.73208433       1.57247574       3.79492420       45       1.95561528       1.19508266      -0.21522725
C       13.92634318       9.44388605       6.03633361       46      -0.02512446      -2.97526503      -0.34132609
C        3.59711896       0.83889709       3.63819228       47      -1.78136563      -0.82635415       0.12754500
C       15.08037072      10.21166457       6.12193428       48      -0.42623463      -1.97574759      -0.34310213
C        8.28372478       8.67711609       3.27761674       49       1.73020267      -0.57219118      -0.53146726
C       10.27558848       2.30311649       6.52643947       50       5.11216259       1.07557726      -0.06900077
C        9.52793541       8.07358556       3.00308224       51       1.22221088       2.87143445       1.02283812
C        9.10102272       2.84202054       6.79049828       52      -4.48379421       2.49402952       1.23057270
C       10.74572583       8.90672909       3.16881533       53      -1.91302049      -3.45196247      -1.09236336
C        7.90722393       2.08382993       6.67780454       54       0.20031789      -0.12285514      -0.58696258
C        6.02366146       1.00643333       3.49269937       55      -1.80659449       1.91418433       1.20263338
C       12.66606951       9.91575633       6.30539943       56      -1.77407265       1.68231452       0.16724919
C       10.01954259       4.66641628       4.07511692       57      -2.05794668       0.51157486      -0.24458864
C        8.63254421       6.23827774       5.76675141       58      -0.12246379       1.50351763       0.43381944
C        8.60201206       4.81596051       3.98171642       59       0.91420263      -0.95067179      -0.73693359
C       10.03458433       6.20158220       5.83715162       60      -1.74095631      -1.73122835      -1.78284574
N       10.67914675       5.38441665       4.95194904       61       0.77346027       1.04895234       1.27878022
N        7.91875393       5.60532528       4.78684461       62       0.96078825       0.50835085       1.61046457
O        9.40093442       5.28611196       0.85123400       63      -1.06432784      -0.22791663      -0.98653454
O        9.28107469       5.69620576       8.94339291       64      -0.78165096      -0.00705059      -0.57727182
O       12.39494750       7.12950315       8.73159439       65       0.83806163      -0.22550055       1.76313400
O        6.24037754       3.82980555       1.01759970       66       1.14745665      -0.12594621       1.85980821
O       13.32552707       9.93020829       9.57043810       67      -0.17929041       0.05369985       0.20817339
O        5.38207371       1.00533879       0.20910132       68      -1.20056748      -1.60958314      -0.08016215
O        5.69542151       4.98274174       6.76390631       69       1.00708842      -0.02335664      -0.06306074
O       12.86372886       5.95153755       3.05569837       70       1.10829115       0.58266455      -0.90662569
O       13.02881335       4.74405937       6.78433637       71       1.81101298      -0.40302742       1.21870387
O        5.55064396       6.27559085       3.05442112       72      -1.70302427       0.30535603      -1.56771255
O        3.48882765       3.48728265       4.31625747       73      -2.32995892       0.94970667       0.43919790
O       15.17978528       7.45085237       5.48113088       74      -1.04001153       0.73346245       0.65828776
O        5.71981761       3.72847498       4.29902654       75      -0.26005527      -1.01712966      -0.07494324
O       12.93450711       7.31889142       5.51596829       76      -2.69067740      -1.21409452      -0.06312883
77
Lattice="9.59895175 0.0 0.0 4.623399778113763 9.190346040402943 0.0 4.407113578340553 1.798465400313876 9.802715206794968" Properties=species:S:1:pos:R:3:spacegroup_kinds:I:1:forces:R:3 spacegroup="P 1" unit_cell=conventional occupancy="_JSON {\"0\": {\"Cu\": 1}, \"1\": {\"Cu\": 1}, \"2\": {\"H\": 1}, \"3\": {\"H\": 1}, \"4\": {\"H\": 1}, \"5\": {\"H\": 1}, \"6\": {\"H\": 1}, \"7\": {\"H\": 1}, \"8\": {\"H\": 1}, \"9\": {\"H\": 1}, \"10\": {\"H\": 1}, \"11\": {\"H\": 1}, \"12\": {\"H\": 1}, \"13\": {\"H\": 1}, \"14\": {\"H\": 1}, \"15\": {\"H\": 1}, \"16\": {\"H\": 1}, \"17\": {\"H\": 1}, \"18\": {\"H\": 1}, \"19\": {\"H\": 1}, \"20\": {\"H\": 1}, \"21\": {\"H\": 1}, \"22\": {\"H\": 1}, \"23\": {\"H\": 1}, \"24\": {\"H\": 1}, \"25\": {\"H\": 1}, \"26\": {\"C\": 1}, \"27\": {\"C\": 1}, \"28\": {\"C\": 1}, \"29\": {\"C\": 1}, \"30\": {\"C\": 1}, \"31\": {\"C\": 1}, \"32\": {\"C\": 1}, \"33\": {\"C\": 1}, \"34\": {\"C\": 1}, \"35\": {\"C\": 1}, \"36\": {\"C\": 1}, \"37\": {\"C\": 1}, \"38\": {\"C\": 1}, \"39\": {\"C\": 1}, \"40\": {\"C\": 1}, \"41\": {\"C\": 1}, \"42\": {\"C\": 1}, \"43\": {\"C\": 1}, \"44\": {\"C\": 1}, \"45\": {\"C\": 1}, \"46\": {\"C\": 1}, \"47\": {\"C\": 1}, \"48\": {\"C\": 1}, \"49\": {\"C\": 1}, \"50\": {\"C\": 1}, \"51\": {\"C\": 1}, \"52\": {\"C\": 1}, \"53\": {\"C\": 1}, \"54\": {\"C\": 1}, \"55\": {\"C\": 1}, \"56\": {\"C\": 1}, \"57\": {\"C\": 1}, \"58\": {\"C\": 1}, \"59\": {\"C\": 1}, \"60\": {\"C\": 1}, \"61\": {\"N\": 1}, \"62\": {\"N\": 1}, \"63\": {\"O\": 1}, \"64\": {\"O\": 1}, \"65\": {\"O\": 1}, \"66\": {\"O\": 1}, \"67\": {\"O\": 1}, \"68\": {\"O\": 1}, \"69\": {\"O\": 1}, \"70\": {\"O\": 1}, \"71\": {\"O\": 1}, \"72\": {\"O\": 1}, \"73\": {\"O\": 1}, \"74\": {\"O\": 1}, \"75\": {\"O\": 1}, \"76\": {\"O\": 1}}" energy=-525.6878051757812 free_energy=-525.6878051757812 stress="-0.009071600623428822 -0.000566464033909142 0.003931434825062752 -0.000566464033909142 -0.010788517072796822 -0.0016072845319285989 0.003931434825062752 -0.0016072845319285989 -0.009800630621612072" pbc="T T T"
Cu      12.83635084       5.40851065       4.93188305        0      -0.04742181      -0.53173494       0.37715539
Cu       5.76503402       5.62695026       4.87298736        1       0.11333996      -0.70303744       0.11733699
H        6.71400348       4.75266446       8.97645101        2       2.22302866       1.09298420      -1.18575025
H       11.85455654       6.21662701       0.82213158        3      -2.02903605      -0.75355554       0.86293024
H        2.53103409       2.27270723       1.51241601        4      -0.97369444      -0.30912310      -0.26510125
H       16.12628567       8.78478840       8.25248292        5       0.41968906      -0.07039312       0.17008916
H       10.08414298       1.26245702       2.62475683        6       0.07774504      -0.25523832       0.68273449
H        8.55521788       9.69639124       7.13645710        7      -0.07180308      -0.26705274       0.52459979
H        7.97448738       1.07296650       1.39198317        8      -1.71583891      -0.81648219       1.00325143
H       10.66528220       9.96468120       8.46447117        9       0.03451650      -0.08464880      -0.08345073
H       12.23879061       3.57080922       8.89773727       10      -1.76639760      -0.12624781      -1.30976486
H        6.42209543       7.42759015       0.97308898       11      -1.35661030      -0.40094435      -0.55879939
H        2.56659201       1.24207442       3.78729645       12       1.39518285      -0.03192142       0.13541135
H       16.04465066       9.69683650       5.92809698       13      -0.55578965       0.87855029       0.20233168
H        7.40091837       8.09132447       3.19924576       14      -1.17166996      -0.49974662       0.00118732
H       11.23679133       2.92415261       6.66473668       15      -1.93140352      -0.95644778      -0.32457870
H        9.63790144       7.02385983       2.75721699       16       0.04039450      -0.67434102      -0.40858710
H        9.00832688       3.89441881       7.13627474       17       0.23539452      -0.84685314      -0.44853637
H       11.68173030       8.40147341       2.96631876       18      -0.45343906       0.61415780       0.33619714
H        6.90450508       2.60077017       6.76992517       19       0.74261236      -0.47992331       0.18087244
H        6.84913600       1.63240350       3.63531317       20       1.39973140       1.05117190       0.16608226
H       11.74739871       9.27850109       6.14444094       21       1.44362104       0.69260943       0.26120090
H       10.59777530       4.06836260       3.40643104       22       0.79010421      -1.27305913      -1.32105541
H        8.09435609       6.95037355       6.42739325       23       0.38499594      -0.77931595      -0.54865527
H        8.00893101       4.30435526       3.24480839       24       0.51585603      -0.03432086       0.21500349
H       10.57836840       6.72033125       6.56018096       25       0.87462914       0.69910383       0.79020208
C       13.03473340       7.04372109       9.70752546       26       4.18249178       0.87210906       4.28857708
C        5.54232000       3.84439081       0.13271442       27      -4.94377804       0.05172481      -6.90166092
C        9.41240068       9.17642291       0.03985767       28      -0.85578394      -3.06601715      -1.34572816
C       14.25752253       4.67248094       7.36683545       29      -3.66497183      -0.05749348      -1.03007495
C        4.37144497       6.34193190       2.45909818       30       1.44556355      -1.87605524       4.01619816
C       14.30851890       4.24858481       8.80050404       31      -2.73944473      -0.45751089      -1.55195665
C        4.27122459       6.77253427       1.09758564       32       1.12056637       0.49633229      -1.94482791
C        5.88634528       4.38804280       9.44889030       33      -0.93002307      -1.49109006       3.04421854
C       12.67573787       6.64687405       0.37354281       34       2.47472668       1.33179045      -1.99057615
C        1.54770318       2.13168282       0.98379934       35       1.13105965       0.54268622      -0.08102868
C       17.08599014       8.86034313       8.79781291       36      -2.64392233      -1.33717966       1.76885819
C       10.03043979       1.58135263       1.60256897       37       0.02177642       0.37394020      -0.24135764
C        8.58405801       9.33492536       8.18879046       38       2.01342177       1.53657055      -1.20595026
C        8.80172610       1.48436391       0.92772776       39       1.96087456       0.51529133      -0.97602385
C        9.78727739       9.51188692       8.92088001       40      -0.44940886      -0.26960871      -0.85264099
C       13.12703574       3.68114367       9.41059793       41       2.90123844       0.80479217       0.83219880
C        5.44462128       7.26358961       0.40431910       42       0.66880262       0.45422435       2.15541291
C        4.60609394       3.02397833       4.19761720       43       5.08188438      -1.25415170      -1.10291708
C       13.96315731       7.90865873       5.67440832       44       5.18731833       3.39157963       0.06269461
C        4.71380080       1.58610024       3.80843925       45       3.38157225       1.43949485       0.02364373
C       13.93981365       9.44689861       6.01280209       46      -0.42786431      -3.10919428      -0.44696635
C        3.62388254       0.84934495       3.66074040       47      -4.36147928      -2.15433764      -0.29583076
C       15.08276268      10.23220200       6.11929764       48       0.46650487      -4.46395016      -1.13437581
C        8.27566376       8.67577652       3.30005402       49       2.89996481      -0.43424964      -0.86456692
C       10.24805530       2.27909276       6.51004140       50       6.68052197       3.88021827       0.73622942
C        9.53140400       8.05906976       2.97970824       51       0.16575924       3.76436806       1.91900706
C        9.08547894       2.84107226       6.76066903       52      -4.33414841       2.59671021       1.66387963
C       10.72158808       8.92592691       3.19568696       53      -0.69851595      -4.35132027      -1.84010315
C        7.90085972       2.10285997       6.68847397       54      -0.10618354      -1.08176172      -1.15641415