90
Lattice="8.99109271 0.0 0.0 -1.632609227901032 9.234653538177913 0.0 -4.324928592874655 -3.132689316416139 9.928191137108788" Properties=species:S:1:pos:R:3:spacegroup_kinds:I:1:forces:R:3 spacegroup="P 1" unit_cell=conventional occupancy="_JSON {\"0\": {\"Zn\": 1}, \"1\": {\"Zn\": 1}, \"2\": {\"H\": 1}, \"3\": {\"H\": 1}, \"4\": {\"H\": 1}, \"5\": {\"H\": 1}, \"6\": {\"H\": 1}, \"7\": {\"H\": 1}, \"8\": {\"H\": 1}, \"9\": {\"H\": 1}, \"10\": {\"H\": 1}, \"11\": {\"H\": 1}, \"12\": {\"H\": 1}, \"13\": {\"H\": 1}, \"14\": {\"H\": 1}, \"15\": {\"H\": 1}, \"16\": {\"H\": 1}, \"17\": {\"H\": 1}, \"18\": {\"H\": 1}, \"19\": {\"H\": 1}, \"20\": {\"H\": 1}, \"21\": {\"H\": 1}, \"22\": {\"H\": 1}, \"23\": {\"H\": 1}, \"24\": {\"H\": 1}, \"25\": {\"H\": 1}, \"26\": {\"H\": 1}, \"27\": {\"H\": 1}, \"28\": {\"H\": 1}, \"29\": {\"H\": 1}, \"30\": {\"H\": 1}, \"31\": {\"H\": 1}, \"32\": {\"H\": 1}, \"33\": {\"H\": 1}, \"34\": {\"H\": 1}, \"35\": {\"H\": 1}, \"36\": {\"H\": 1}, \"37\": {\"H\": 1}, \"38\": {\"H\": 1}, \"39\": {\"H\": 1}, \"40\": {\"H\": 1}, \"41\": {\"H\": 1}, \"42\": {\"H\": 1}, \"43\": {\"H\": 1}, \"44\": {\"C\": 1}, \"45\": {\"C\": 1}, \"46\": {\"C\": 1}, \"47\": {\"C\": 1}, \"48\": {\"C\": 1}, \"49\": {\"C\": 1}, \"50\": {\"C\": 1}, \"51\": {\"C\": 1}, \"52\": {\"C\": 1}, \"53\": {\"C\": 1}, \"54\": {\"C\": 1}, \"55\": {\"C\": 1}, \"56\": {\"C\": 1}, \"57\": {\"C\": 1}, \"58\": {\"C\": 1}, \"59\": {\"C\": 1}, \"60\": {\"C\": 1}, \"61\": {\"C\": 1}, \"62\": {\"C\": 1}, \"63\": {\"C\": 1}, \"64\": {\"C\": 1}, \"65\": {\"C\": 1}, \"66\": {\"C\": 1}, \"67\": {\"C\": 1}, \"68\": {\"C\": 1}, \"69\": {\"C\": 1}, \"70\": {\"C\": 1}, \"71\": {\"C\": 1}, \"72\": {\"C\": 1}, \"73\": {\"C\": 1}, \"74\": {\"C\": 1}, \"75\": {\"C\": 1}, \"76\": {\"C\": 1}, \"77\": {\"C\": 1}, \"78\": {\"N\": 1}, \"79\": {\"N\": 1}, \"80\": {\"N\": 1}, \"81\": {\"N\": 1}, \"82\": {\"O\": 1}, \"83\": {\"O\": 1}, \"84\": {\"O\": 1}, \"85\": {\"O\": 1}, \"86\": {\"O\": 1}, \"87\": {\"O\": 1}, \"88\": {\"O\": 1}, \"89\": {\"O\": 1}}" energy=-562.8555297851562 free_energy=-562.8555297851562 stress="-0.0021486026234924793 0.001091023557819426 0.0033963373862206936 0.001091023557819426 -0.0027557495050132275 -0.00029850538703612983 0.0033963373862206936 -0.00029850538703612983 -0.004674813244491816" pbc="T T T"
Zn       3.20947461      -1.00205488       3.91546086        0      -0.18420701      -0.18047425       0.13783872
Zn      -0.18000866       7.10693427       6.01153063        1       0.18930395       0.14440989      -0.14448723
H        3.06560753       2.14613021       3.40839262        2       0.02100947      -0.01048201      -0.00616004
H       -0.03388259       3.96122065       6.52218802        3       0.06434781      -0.00469222      -0.08456012
H        3.35658941       4.30798066       2.17726504        4      -0.06082023       0.08118708       0.09344751
H       -0.32629218       1.79361022       7.74812522        5       0.05410430      -0.05522263      -0.07352974
H        4.92081498       4.48533345       0.26489825        6      -0.00558865      -0.04516262       0.07332350
H       -1.88731545       1.61755588       9.66296458        7      -0.00814093      -0.02540521      -0.02660283
H        1.93841000      -0.60763520       9.43371546        8      -0.06349534       0.01035198       0.01458906
H        1.09951154       6.71003729       0.49107617        9      -0.09283713      -0.01041300       0.17613694
H        4.41144843       6.54374915       1.06388300       10       0.10226101      -0.07165988      -0.13748175
H       -1.37967113      -0.43920379       8.86552997       11      -0.04263291      -0.04432756      -0.07598211
H        3.35929667       6.47318620       2.47998345       12      -0.12018003      -0.08877690      -0.00905054
H       -0.32188123      -0.36809194       7.44490358       13       0.02184977      -0.01597057       0.05833448
H        5.64457907       5.73540062       3.09527492       14       0.01960416       0.00545900       0.04576993
H       -2.60623821       0.36959396       6.83043321       15      -0.03007615      -0.03655215      -0.01705661
H        5.22908590       7.22565893       3.96235124       16       0.09761385       0.02618740      -0.02278870
H       -2.19647570      -1.12314610       5.96806873       17      -0.09562421      -0.02790721      -0.00791261
H        6.33901779       7.27762180       2.57055932       18       0.09952510       0.07807098       0.00151325
H       -3.30521741      -1.17986786       7.35764818       19      -0.02487339       0.00030502      -0.02373018
H        0.87206011       6.27039363       8.95049298       20       0.07885721      -0.00041491      -0.05556905
H        2.15661108      -0.16764643       0.97832821       21      -0.01926610      -0.06603086       0.13073055
H        1.12728640       4.71942742       9.74897712       22       0.05341290      -0.09128763      -0.00337069
H        1.90763081       1.38345829       0.18157645       23      -0.07408261      -0.06400657      -0.01975495
H        8.40342810       1.28140431       0.61362636       24      -0.00043421      -0.02731344       0.03174525
H       -5.37134121       4.81828758       9.31490229       25      -0.00664721       0.03684136      -0.03305294
H       -0.34055590      -0.23427745       1.47553094       26       0.03302752      -0.00669944       0.19049966
H        3.37461757       6.33934771       8.45446760       27      -0.02982142      -0.04884982      -0.09870954
H        4.32550191       5.22167321       6.49976544       28       0.00787757       0.00392184      -0.05672923
H       -1.29392101       0.88160240       3.42975028       29       0.01235937      -0.00559865       0.04838354
H        4.00634796       4.57179744       4.90200398       30       0.06850120      -0.01243281      -0.04929576
H       -0.97408824       1.53156814       5.02351423       31      -0.05574026       0.02230565       0.05778413
H        2.36827816       3.78764264       7.38466030       32       0.01723646      -0.05777469      -0.11710883
H        0.66394559       2.31648555       2.54437188       33       0.04810374       0.01867653       0.01742716
H        2.33133737       2.98353507       5.81455506       34      -0.08178753       0.01020567      -0.02479782
H        0.70505552       3.11881881       4.11634990       35      -0.01376401      -0.08499376      -0.08249027
H       -4.21677712       3.12544840       7.66373894       36       0.01752337       0.02270083       0.02410052
H        7.25065145       2.97616293       2.26084492       37      -0.00929526       0.02086439       0.01852526
H        4.73434411       2.28500234       6.11359058       38       0.05724411      -0.01463562      -0.05946048
H       -1.70041359       3.82011283       3.81265105       39      -0.12380343       0.01883928       0.13721454
H        4.40230968       0.85754906       8.26608103       40      -0.02118441      -0.00576487       0.06116898
H       -1.36583140       5.24279198       1.65873073       41      -0.02278763       0.03804373      -0.05726539
H        2.79116286       1.55418331       8.36980913       42      -0.10391681      -0.03725573       0.14597543
H        0.24439558       4.55236217       1.55858768       43      -0.00222924       0.03110698      -0.04088237
C        5.43798762       1.26812223       1.08331044       44      -0.26664153       0.28132275       0.18017176
C       -2.40152327       4.83583034       8.84228427       45       0.11431667      -0.40371102       0.01202750
C        4.52615211       1.14184584       2.15936977       46       0.04231218       0.26538980      -0.11407545
C       -1.49183201       4.95951794       7.76828603       47      -0.05563819      -0.11666095       0.12852257
C        3.77292330       2.23882800       2.58412870       48       0.07151787      -0.01563545      -0.12153252
C       -0.73789022       3.86382033       7.34395489       49      -0.13542798       0.00347477       0.19963425
C        3.94346104       3.43873089       1.88741804       50      -0.00439432      -0.04984197       0.00425637
C       -0.90892675       2.66570402       8.04132821       51      -0.08060445      -0.03142148       0.08405557
C        4.83785954       3.53787790       0.80520570       52      -0.05469641       0.40667152       0.05772641
C       -1.80723019       2.56442083       9.12690572       53       0.21649742      -0.34765014      -0.26972696
C        5.60620717       2.45861235       0.37647274       54       0.06078722      -0.28484038       0.00101590
C       -2.57391781       3.64256965       9.55368018       55       0.09699586       0.47350192      -0.26259872
C        3.82422862       8.41059560       1.86670697       56       0.23948249       0.52905178      -0.05353555
C       -0.79534137      -2.30834114       8.06089242       57      -0.08959267      -0.59060061       0.01110482
C        4.22032856       6.98824821       2.04429841       58      -0.07362227      -0.06684992       0.15779608
C       -1.18482658      -0.89081592       7.87923746       59       0.07070258       0.43708983       0.08718017
C        5.43488264       6.80531328       2.97069569       60      -0.20291258       0.01643322      -0.07817772
C       -2.39964902      -0.70120531       6.95913110       61       0.09670989      -0.08262713       0.03387980
C        1.12134197       5.80158606       9.91243319       62      -0.14371800       0.27156416       0.28171676
C        1.91137214       0.29592728       0.01670295       63       0.11461888       0.01097710      -0.30660379
C        8.43410908       0.18706318       0.48675368       64      -0.10369071      -0.03294279      -0.15076816
C       -5.40187938       5.91260429       9.44511779       65       0.08975257       0.06919200       0.02223192
C        2.48937757       5.88222041       5.65780398       66      -0.00490081      -0.33574936       0.20370024
C        0.54373558       0.22363565       4.26869950       67      -0.13052171       0.17345665      -0.02968677
C        3.52844822       4.78573961       5.86849512       68       0.02131826       0.03262222       0.12080954
C       -0.49417709       1.31844191       4.05781330       69      -0.09215441      -0.08773633      -0.08534180
C        2.99679837       3.50743784       6.52141399       70      -0.08202560       0.31132376       0.01449116
C        0.03745931       2.59155686       3.40519439       71       0.01422183       0.01108146       0.12905008
C        4.11467138       2.57825789       6.97261048       72      -0.02804595      -0.18730111       0.08695453
C       -1.08463165       3.52776721       2.95486626       73       0.16787098      -0.08221695      -0.11610863
C        3.59876474       1.31805900       7.66550042       74       0.11328024      -0.06853689      -0.07494587
C       -0.56852495       4.78346523       2.26625739       75       0.07493299       0.08898298      -0.13471791
C        3.10239261       0.22175462       6.72010472       76       0.12145300       0.32007337       0.21978292
C       -0.07066177       5.87814986       3.20945310       77      -0.05652148      -0.29265186      -0.44755241
N        6.00822127       0.01207552       0.93107758       78       0.49178088      -0.79491717      -0.58366287
N       -2.97650747       6.09218444       8.99637646       79      -0.46468532       0.60266399       0.60679752
N        4.55492855      -0.17697321       2.61204021       80      -0.35349062      -0.34026915       0.43489611
N       -1.52044438       6.28139545       7.31965086       81       0.34365603       0.28999972      -0.49180800
O        2.72046826       6.70701198       4.71880716       82      -0.00242376       0.28320369      -0.17222586
O        0.30942449      -0.60587524       5.20641867       83       0.00830494      -0.19479309       0.11044034
O        1.48330482       5.91247046       6.44144598       84      -0.07749587       0.09252225      -0.03221279
O        1.54743213       0.18951919       3.48801103       85       0.21535435      -0.06379989      -0.08852925
O        3.52202542       0.25268118       5.52344593       86       0.09752720      -0.15057302      -0.38427541
O       -0.48643353       5.84898723       4.40232549       87      -0.18168041       0.15643403       0.64859176
O        2.32667268      -0.65918402       7.21657013       88      -0.10147355      -0.16617565      -0.00263159
O        0.70465221       6.75681770       2.70734221       89       0.13243677       0.23109835       0.02720385
90
Lattice="8.99109271 0.0 0.0 -1.632609227901032 9.234653538177913 0.0 -4.324928592874655 -3.132689316416139 9.928191137108788" Properties=species:S:1:pos:R:3:spacegroup_kinds:I:1:forces:R:3 spacegroup="P 1" unit_cell=conventional occupancy="_JSON {\"0\": {\"Zn\": 1}, \"1\": {\"Zn\": 1}, \"2\": {\"H\": 1}, \"3\": {\"H\": 1}, \"4\": {\"H\": 1}, \"5\": {\"H\": 1}, \"6\": {\"H\": 1}, \"7\": {\"H\": 1}, \"8\": {\"H\": 1}, \"9\": {\"H\": 1}, \"10\": {\"H\": 1}, \"11\": {\"H\": 1}, \"12\": {\"H\": 1}, \"13\": {\"H\": 1}, \"14\": {\"H\": 1}, \"15\": {\"H\": 1}, \"16\": {\"H\": 1}, \"17\": {\"H\": 1}, \"18\": {\"H\": 1}, \"19\": {\"H\": 1}, \"20\": {\"H\": 1}, \"21\": {\"H\": 1}, \"22\": {\"H\": 1}, \"23\": {\"H\": 1}, \"24\": {\"H\": 1}, \"25\": {\"H\": 1}, \"26\": {\"H\": 1}, \"27\": {\"H\": 1}, \"28\": {\"H\": 1}, \"29\": {\"H\": 1}, \"30\": {\"H\": 1}, \"31\": {\"H\": 1}, \"32\": {\"H\": 1}, \"33\": {\"H\": 1}, \"34\": {\"H\": 1}, \"35\": {\"H\": 1}, \"36\": {\"H\": 1}, \"37\": {\"H\": 1}, \"38\": {\"H\": 1}, \"39\": {\"H\": 1}, \"40\": {\"H\": 1}, \"41\": {\"H\": 1}, \"42\": {\"H\": 1}, \"43\": {\"H\": 1}, \"44\": {\"C\": 1}, \"45\": {\"C\": 1}, \"46\": {\"C\": 1}, \"47\": {\"C\": 1}, \"48\": {\"C\": 1}, \"49\": {\"C\": 1}, \"50\": {\"C\": 1}, \"51\": {\"C\": 1}, \"52\": {\"C\": 1}, \"53\": {\"C\": 1}, \"54\": {\"C\": 1}, \"55\": {\"C\": 1}, \"56\": {\"C\": 1}, \"57\": {\"C\": 1}, \"58\": {\"C\": 1}, \"59\": {\"C\": 1}, \"60\": {\"C\": 1}, \"61\": {\"C\": 1}, \"62\": {\"C\": 1}, \"63\": {\"C\": 1}, \"64\": {\"C\": 1}, \"65\": {\"C\": 1}, \"66\": {\"C\": 1}, \"67\": {\"C\": 1}, \"68\": {\"C\": 1}, \"69\": {\"C\": 1}, \"70\": {\"C\": 1}, \"71\": {\"C\": 1}, \"72\": {\"C\": 1}, \"73\": {\"C\": 1}, \"74\": {\"C\": 1}, \"75\": {\"C\": 1}, \"76\": {\"C\": 1}, \"77\": {\"C\": 1}, \"78\": {\"N\": 1}, \"79\": {\"N\": 1}, \"80\": {\"N\": 1}, \"81\": {\"N\": 1}, \"82\": {\"O\": 1}, \"83\": {\"O\": 1}, \"84\": {\"O\": 1}, \"85\": {\"O\": 1}, \"86\": {\"O\": 1}, \"87\": {\"O\": 1}, \"88\": {\"O\": 1}, \"89\": {\"O\": 1}}" energy=-562.84716796875 free_energy=-562.84716796875 stress="-0.0019348511705175042 0.0009712922037579119 0.003409827593713999 0.0009712922037579119 -0.002693583257496357 -0.00016807035717647523 0.003409827593713999 -0.00016807035717647523 -0.004642513580620289" pbc="T T T"
Zn       3.21141114      -1.00356019       3.91522291        0      -0.22068033      -0.15181211       0.13471216
Zn      -0.17909118       7.10470391       6.00907544        1       0.18953741       0.14636907      -0.12047358
H        3.06782941       2.14450131       3.40814965        2      -0.06335121      -0.02113243       0.09028924
H       -0.03444749       3.96330944       6.52169207        3       0.09850776      -0.00823006      -0.11854485
H        3.35761419       4.30902676       2.17484067        4      -0.10735507       0.10670546       0.13273638
H       -0.32658622       1.79626551       7.75013915        5       0.09426065      -0.15212385      -0.09371806
H        4.92267515       4.48412758       0.26293093        6      -0.02596144      -0.00055636       0.07515035
H       -1.88772585       1.61911699       9.66410860        7      -0.02539539      -0.03620768      -0.00498941
H        1.93783790      -0.60492499       9.43656558        8      -0.01331036      -0.00792047      -0.03173903
H        1.09672769       6.70938284       0.49044503        9      -0.03510452       0.01437185       0.12627785
H        4.40866470       6.54284279       1.06586542       10       0.12086914      -0.07593703      -0.14704302
H       -1.38017360      -0.43871292       8.86429467       11      -0.05445498      -0.03369999      -0.07069154
H        3.35930283       6.47433652       2.48234637       12      -0.07841425      -0.04477888      -0.03284365
H       -0.32191296      -0.37065339       7.44679577       13       0.04759130       0.03639697       0.01178943
H        5.64373454       5.73328899       3.09289719       14       0.03795383      -0.01391371       0.05313310
H       -2.60887006       0.37240198       6.83048851       15      -0.01648660      -0.17069614      -0.01191931
H        5.22870056       7.22340818       3.96471136       16       0.11603391       0.01088462      -0.04629821
H       -2.19799393      -1.12316236       5.96826164       17      -0.09240639      -0.04188926      -0.04483239
H        6.33716134       7.28011209       2.56782730       18       0.09306906       0.04586649       0.04156855
H       -3.30591641      -1.18020019       7.35635481       19      -0.08475041      -0.03450408       0.00704152
H        0.87130687       6.27320298       8.94874475       20       0.11884303      -0.05638961       0.06912173
H        2.15646223      -0.16662048       0.97935719       21      -0.03205280      -0.06078362       0.11456123
H        1.12751281       4.72053798       9.74711535       22       0.04528096      -0.11214086       0.00059409
H        1.90493488       1.38547265       0.17965599       23      -0.07754031      -0.19691038      -0.03823142
H        8.40423130       1.27967007       0.61578781       24       0.01256614      -0.04480648       0.02786340
H       -5.37132817       4.81992415       9.31359530       25      -0.01678085      -0.08528502      -0.03813663
H       -0.33927795      -0.23454095       1.47763950       26       0.04265624      -0.03114512       0.22556405
H        3.37302799       6.33974543       8.45361059       27      -0.02256502      -0.09639802       0.01179453
H        4.32565899       5.22165489       6.50065107       28      -0.07065087      -0.03432085      -0.13347420
H       -1.29554036       0.87899711       3.43139454       29       0.05799723       0.01934486       0.05437351
H        4.00681046       4.57150655       4.90064642       30       0.06257753      -0.01833140      -0.04854750
H       -0.97476573       1.52897656       5.02422014       31      -0.02159831       0.02241762      -0.00598273
H        2.36810201       3.78887526       7.38561512       32       0.05211476      -0.06070742      -0.14531612
H        0.66317972       2.31663351       2.54224659       33       0.02792221       0.03559715       0.07421994
H        2.33368463       2.98070453       5.81682985       34      -0.07757160       0.03928033      -0.01077661
H        0.70348477       3.11608931       4.11744732       35       0.04480448      -0.04401616      -0.03328543
H       -4.21421476       3.12701204       7.66147334       36       0.00290463      -0.00796957       0.00136550
H        7.25127414       2.97802223       2.26322207       37      -0.05700566      -0.03111980      -0.03643996
H        4.73186986       2.28359535       6.11567504       38       0.13811338      -0.05053955      -0.17764321
H       -1.70210662       3.82161727       3.81033830       39      -0.16103369       0.02422904       0.21438447
H        4.39940551       0.85726258       8.26490265       40       0.06605976      -0.03899506       0.11935993
H       -1.36655250       5.24085753       1.65631223       41       0.00242971       0.03298402      -0.00843541
H        2.79379063       1.55418488       8.36774423       42      -0.17608929      -0.00433405       0.21201138
H        0.24315540       4.55467410       1.55765382       43      -0.02586547       0.02096547       0.00078887
C        5.43884162       1.26861446       1.08558316       44      -0.24800882       0.23584789       0.10446739
C       -2.40091934       4.83783288       8.84302600       45       0.12005717      -0.50131893      -0.00007108
C        4.52396101       1.14308890       2.15661096       46       0.01826459       0.11387673       0.05960692
C       -1.49427452       4.95719810       7.76603789       47      -0.03106794      -0.03567418       0.17107853
C        3.77131451       2.23892508       2.58605093       48       0.16122042      -0.05375636      -0.23470137
C       -0.73783778       3.86458564       7.34177601       49      -0.21625803      -0.17315932       0.32527414
C        3.94065257       3.43770111       1.88936265       50       0.06238981       0.02750875      -0.08976211
C       -0.91178191       2.66323962       8.04124175       51      -0.10552290       0.20944123       0.06449563
C        4.83525328       3.54073453       0.80683857       52       0.07862776       0.12314764       0.03164876
C       -1.80981514       2.56613591       9.12935269       53       0.34450933      -0.42307061      -0.39091155
C        5.60868353       2.45654915       0.37853257       54      -0.12161039      -0.03482375       0.09119844
C       -2.57149203       3.64478604       9.55416248       55      -0.05493674       0.49887204      -0.14133701
C        3.82621651       8.41287124       1.86403298       56       0.13551104       0.38426334       0.14267044
C       -0.79676062      -2.30691315       8.05994834       57      -0.02251273      -0.74240071       0.02761267
C        4.22206908       6.98993025       2.04567857       58      -0.14302577      -0.11003694       0.16790114
C       -1.18744941      -0.88832544       7.87697858       59       0.09283140       0.30279928       0.15592477
C        5.43625182       6.80308179       2.97243698       60      -0.22244731       0.10584568      -0.11722354
C       -2.40226347      -0.70317883       6.95856227       61       0.12833627       0.13527812       0.00587620
C        1.12038178       5.80150307       9.91479601       62      -0.07619435       0.33402473       0.12079039
C        1.90927000       0.29310261       0.01550645       63       0.15350507       0.16923700      -0.20578267
C        8.43669236       0.18468408       0.48920931       64      -0.24747066       0.01499926      -0.16848713
C       -5.40370390       5.90983138       9.44754384       65       0.12301382       0.21335386      -0.14400452
C        2.49202623       5.88262965       5.65606067       66      -0.26615700      -0.35320443       0.36873901
C        0.54119255       0.22257100       4.27125730       67       0.11275351       0.24593468      -0.29779869
C        3.52592748       4.78430880       5.86604201       68       0.19712946       0.13294491       0.19674978
C       -0.49189009       1.31712479       4.05657786       69      -0.25546053      -0.09700491       0.02546787
C        2.99902695       3.50993738       6.52188580       70      -0.18227531       0.17604424       0.02669595
C        0.03874665       2.59033294       3.40738414       71      -0.06149237       0.00754252      -0.01791671
C        4.11597186       2.57724444       6.97114538       72      -0.06862530      -0.05781695       0.23748194
C       -1.08632718       3.52687948       2.95665468       73       0.30869591      -0.04975873      -0.11896330
C        3.60041670       1.31984073       7.66670721       74       0.05276176      -0.13502178      -0.23144174
C       -0.56950667       4.78352400       2.26878462       75       0.08851250       0.08645838      -0.24762166
C        3.10141107       0.22128870       6.71980712       76       0.19767150       0.39626789       0.15267113
C       -0.07014487       5.87820504       3.20996090       77       0.00028963      -0.23875451      -0.56821060
N        6.00804365       0.01035980       0.93020612       78       0.46984190      -0.65952396      -0.56436002
N       -2.97700566       6.09083327       8.99888522       79      -0.41949111       0.73515731       0.45867839
N        4.55440199      -0.17940723       2.61474669       80      -0.25236946      -0.17873797       0.24196517
N       -1.51846562       6.27922754       7.32026604       81       0.20496705       0.43235940      -0.45903260
O        2.71990269       6.70526713       4.71657314       82       0.02787204       0.30167079      -0.18400341
O        0.31001928      -0.60724913       5.20443617       83      -0.04198749      -0.29775465       0.24750331
O        1.48259381       5.91524662       6.44394870       84       0.13258377       0.07562004      -0.18198048
O        1.54770949       0.19100691       3.48767086       85       0.10109777      -0.07986721       0.01813746
O        3.51904920       0.25422874       5.52111489       86       0.09084084      -0.14696354      -0.31909978
O       -0.48558365       5.85134217       4.40016310       87      -0.24339046       0.13079718       0.79229963
O        2.32870639      -0.66074195       7.21479195       88      -0.14689098      -0.19282892       0.04139725
O        0.70721243       6.75712076       2.70908517       89       0.10824252       0.18436673       0.00703890
90
Lattice="8.99109271 0.0 0.0 -1.632609227901032 9.234653538177913 0.0 -4.324928592874655 -3.132689316416139 9.928191137108788" Properties=species:S:1:pos:R:3:spacegroup_kinds:I:1:forces:R:3 spacegroup="P 1" unit_cell=conventional occupancy="_JSON {\"0\": {\"Zn\": 1}, \"1\": {\"Zn\": 1}, \"2\": {\"H\": 1}, \"3\": {\"H\": 1}, \"4\": {\"H\": 1}, \"5\": {\"H\": 1}, \"6\": {\"H\": 1}, \"7\": {\"H\": 1}, \"8\": {\"H\": 1}, \"9\": {\"H\": 1}, \"10\": {\"H\": 1}, \"11\": {\"H\": 1}, \"12\": {\"H\": 1}, \"13\": {\"H\": 1}, \"14\": {\"H\": 1}, \"15\": {\"H\": 1}, \"16\": {\"H\": 1}, \"17\": {\"H\": 1}, \"18\": {\"H\": 1}, \"19\": {\"H\": 1}, \"20\": {\"H\": 1}, \"21\": {\"H\": 1}, \"22\": {\"H\": 1}, \"23\": {\"H\": 1}, \"24\": {\"H\": 1}, \"25\": {\"H\": 1}, \"26\": {\"H\": 1}, \"27\": {\"H\": 1}, \"28\": {\"H\": 1}, \"29\": {\"H\": 1}, \"30\": {\"H\": 1}, \"31\": {\"H\": 1}, \"32\": {\"H\": 1}, \"33\": {\"H\": 1}, \"34\": {\"H\": 1}, \"35\": {\"H\": 1}, \"36\": {\"H\": 1}, \"37\": {\"H\": 1}, \"38\": {\"H\": 1}, \"39\": {\"H\": 1}, \"40\": {\"H\": 1}, \"41\": {\"H\": 1}, \"42\": {\"H\": 1}, \"43\": {\"H\": 1}, \"44\": {\"C\": 1}, \"45\": {\"C\": 1}, \"46\": {\"C\": 1}, \"47\": {\"C\": 1}, \"48\": {\"C\": 1}, \"49\": {\"C\": 1}, \"50\": {\"C\": 1}, \"51\": {\"C\": 1}, \"52\": {\"C\": 1}, \"53\": {\"C\": 1}, \"54\": {\"C\": 1}, \"55\": {\"C\": 1}, \"56\": {\"C\": 1}, \"57\": {\"C\": 1}, \"58\": {\"C\": 1}, \"59\": {\"C\": 1}, \"60\": {\"C\": 1}, \"61\": {\"C\": 1}, \"62\": {\"C\": 1}, \"63\": {\"C\": 1}, \"64\": {\"C\": 1}, \"65\": {\"C\": 1}, \"66\": {\"C\": 1}, \"67\": {\"C\": 1}, \"68\": {\"C\": 1}, \"69\": {\"C\": 1}, \"70\": {\"C\": 1}, \"71\": {\"C\": 1}, \"72\": {\"C\": 1}, \"73\": {\"C\": 1}, \"74\": {\"C\": 1}, \"75\": {\"C\": 1}, \"76\": {\"C\": 1}, \"77\": {\"C\": 1}, \"78\": {\"N\": 1}, \"79\": {\"N\": 1}, \"80\": {\"N\": 1}, \"81\": {\"N\": 1}, \"82\": {\"O\": 1}, \"83\": {\"O\": 1}, \"84\": {\"O\": 1}, \"85\": {\"O\": 1}, \"86\": {\"O\": 1}, \"87\": {\"O\": 1}, \"88\": {\"O\": 1}, \"89\": {\"O\": 1}}" energy=-562.8404541015625 free_energy=-562.8404541015625 stress="-0.0026087372098118067 0.0010111972223967314 0.003845823695883155 0.0010111972223967314 -0.002226443262770772 -0.0005997755797579885 0.003845823695883155 -0.0005997755797579885 -0.004694648552685976" pbc="T T T"
Zn       3.20916791      -1.00556319       3.91362784        0      -0.21317366      -0.15062436       0.14060143
Zn      -0.17732878       7.10742421       6.00945245        1       0.16523892       0.11684806      -0.12410521
H        3.06783624       2.14689680       3.40710673        2      -0.07665560      -0.04136916       0.12158374
H       -0.03542954       3.96349975       6.52422040        3       0.15609783       0.01114587      -0.20935218
H        3.35479113       4.31070916       2.17720764        4      -0.03863269       0.02243607       0.08862862
H       -0.32444497       1.79774639       7.75246402        5       0.13145751      -0.20465866      -0.12578619
H        4.92139623       4.48200536       0.26267607        6      -0.01201162       0.05898165       0.04721743
H       -1.88804061       1.62147166       9.66451876        7      -0.02119546      -0.05908409       0.01367650
H        1.93983726      -0.60338797       9.43480548        8      -0.09310973      -0.03270667       0.06310643
H        1.09881590       6.70661714       0.48846262        9      -0.05898724       0.03714025       0.15443270
H        4.40649960       6.54557629       1.06432349       10       0.13727176      -0.06962838      -0.10699700
H       -1.37742249      -0.43990387       8.86289464       11      -0.09004447       0.00215705      -0.00933128
H        3.36035748       6.47226224       2.47961303       12      -0.09772333      -0.05852948      -0.00495234
H       -0.32351363      -0.36824145       7.44805799       13       0.05286412       0.03773707      -0.00560749
H        5.64552818       5.73358859       3.09529107       14       0.01770835       0.02796615       0.04435988
H       -2.60984617       0.37184517       6.82977621       15      -0.01773668      -0.19023240      -0.01601357
H        5.23119689       7.22319271       3.96621702       16       0.10109337       0.02618698      -0.04143471
H       -2.19559285      -1.12453008       5.97004635       17      -0.09870144      -0.05743003      -0.08454759
H        6.33989387       7.27847104       2.56873700       18       0.03590107       0.03567732       0.05546146
H       -3.30447791      -1.18123828       7.35830791       19      -0.10578561      -0.04438282       0.00058074
H        0.87321056       6.27307794       8.94777960       20       0.09697849      -0.07363109       0.11619789
H        2.15897669      -0.16778674       0.98230720       21      -0.05834554      -0.01627837       0.04007658