106
Lattice="4.14675197 0.0 0.0 3.176069505694632e-05 13.490650019962613 0.0 0.5105244994741549 -0.00020907573568957152 22.420739192212988" Properties=species:S:1:pos:R:3:spacegroup_kinds:I:1:forces:R:3 spacegroup="P 1" unit_cell=conventional occupancy="_JSON {\"0\": {\"Cd\": 1}, \"1\": {\"Cd\": 1}, \"2\": {\"H\": 1}, \"3\": {\"H\": 1}, \"4\": {\"H\": 1}, \"5\": {\"H\": 1}, \"6\": {\"H\": 1}, \"7\": {\"H\": 1}, \"8\": {\"H\": 1}, \"9\": {\"H\": 1}, \"10\": {\"H\": 1}, \"11\": {\"H\": 1}, \"12\": {\"H\": 1}, \"13\": {\"H\": 1}, \"14\": {\"H\": 1}, \"15\": {\"H\": 1}, \"16\": {\"H\": 1}, \"17\": {\"H\": 1}, \"18\": {\"H\": 1}, \"19\": {\"H\": 1}, \"20\": {\"H\": 1}, \"21\": {\"H\": 1}, \"22\": {\"H\": 1}, \"23\": {\"H\": 1}, \"24\": {\"H\": 1}, \"25\": {\"H\": 1}, \"26\": {\"H\": 1}, \"27\": {\"H\": 1}, \"28\": {\"H\": 1}, \"29\": {\"H\": 1}, \"30\": {\"H\": 1}, \"31\": {\"H\": 1}, \"32\": {\"H\": 1}, \"33\": {\"H\": 1}, \"34\": {\"C\": 1}, \"35\": {\"C\": 1}, \"36\": {\"C\": 1}, \"37\": {\"C\": 1}, \"38\": {\"C\": 1}, \"39\": {\"C\": 1}, \"40\": {\"C\": 1}, \"41\": {\"C\": 1}, \"42\": {\"C\": 1}, \"43\": {\"C\": 1}, \"44\": {\"C\": 1}, \"45\": {\"C\": 1}, \"46\": {\"C\": 1}, \"47\": {\"C\": 1}, \"48\": {\"C\": 1}, \"49\": {\"C\": 1}, \"50\": {\"C\": 1}, \"51\": {\"C\": 1}, \"52\": {\"C\": 1}, \"53\": {\"C\": 1}, \"54\": {\"C\": 1}, \"55\": {\"C\": 1}, \"56\": {\"C\": 1}, \"57\": {\"C\": 1}, \"58\": {\"C\": 1}, \"59\": {\"C\": 1}, \"60\": {\"C\": 1}, \"61\": {\"C\": 1}, \"62\": {\"C\": 1}, \"63\": {\"C\": 1}, \"64\": {\"C\": 1}, \"65\": {\"C\": 1}, \"66\": {\"C\": 1}, \"67\": {\"C\": 1}, \"68\": {\"C\": 1}, \"69\": {\"C\": 1}, \"70\": {\"C\": 1}, \"71\": {\"C\": 1}, \"72\": {\"C\": 1}, \"73\": {\"C\": 1}, \"74\": {\"C\": 1}, \"75\": {\"C\": 1}, \"76\": {\"C\": 1}, \"77\": {\"C\": 1}, \"78\": {\"C\": 1}, \"79\": {\"C\": 1}, \"80\": {\"C\": 1}, \"81\": {\"C\": 1}, \"82\": {\"I\": 1}, \"83\": {\"I\": 1}, \"84\": {\"I\": 1}, \"85\": {\"I\": 1}, \"86\": {\"N\": 1}, \"87\": {\"N\": 1}, \"88\": {\"N\": 1}, \"89\": {\"N\": 1}, \"90\": {\"N\": 1}, \"91\": {\"N\": 1}, \"92\": {\"N\": 1}, \"93\": {\"N\": 1}, \"94\": {\"N\": 1}, \"95\": {\"N\": 1}, \"96\": {\"N\": 1}, \"97\": {\"N\": 1}, \"98\": {\"N\": 1}, \"99\": {\"N\": 1}, \"100\": {\"N\": 1}, \"101\": {\"N\": 1}, \"102\": {\"O\": 1}, \"103\": {\"O\": 1}, \"104\": {\"O\": 1}, \"105\": {\"O\": 1}}" energy=-720.9124145507812 free_energy=-720.9124145507812 stress="0.00110898248385638 -6.666752597084269e-05 -0.00046925293281674385 -6.666752597084269e-05 -0.002425139071419835 8.700645594217349e-06 -0.00046925293281674385 8.700645594217349e-06 -0.002536049811169505" pbc="T T T"
Cd       4.40199797       6.74521745      11.21040244        0      -0.00457895      -0.00300744       0.00019961
Cd       0.00004374       0.00003300      -0.00002021        1      -0.00679216       0.00056659      -0.00266101
H        3.35708604       8.65862287       8.89582195        2      -0.00882596       0.05649164      -0.06788444
H        3.61270336      11.57677785      20.10623682        3      -0.02679835      -0.04599329      -0.08162324
H        1.29772355       4.83116217      13.52321134        4       0.00315435      -0.07363422       0.05587947
H        1.04270622       1.91349648       2.31283287        5       0.01902925       0.05213969       0.07140826
H        3.43718193      10.98174886       7.97909172        6      -0.00150060       0.06209192      -0.03261536
H        3.69272729       9.25314272      19.18959234        7       0.01091117      -0.05417529      -0.00747907
H        1.21881726       2.50935644      14.44070341        8      -0.02122733      -0.05645449       0.00102788
H        0.96367741       4.23720404       3.22945485        9      -0.01028669       0.04884287       0.00866725
H        1.77183998      12.02883938      11.38618484       10       0.03996453      -0.00457881       0.05000209
H        1.51512227       8.20720280       0.17848095       11       0.02501217       0.03042188       0.01118556
H        2.88437013       1.46286810      11.03121064       12      -0.02021009       0.01537119      -0.01950875
H        3.14032054       5.28375548      22.24195284       13      -0.00288098      -0.05368334       0.00062802
H        1.49536200       9.67929022      12.18529561       14       0.07051770       0.14010541       0.05455669
H        1.24060460      10.55664373       0.97499208       15       0.05663089      -0.15375990       0.02456617
H        3.15645869       3.81168937      10.23354881       16      -0.02958275      -0.17452243       0.02035986
H        3.41265678       2.93348341      21.44445655       17      -0.03471228       0.16744393       0.01049421
H        2.08470651       1.96946812       4.03509530       18       0.00723553       0.05289803       0.02564029
H        2.34001214       4.77638831      15.24641284       19       0.01182248      -0.06001539       0.03789490
H        2.56975186      11.52086141      18.38228422       20       0.00022400      -0.03139532      -0.01398377
H        2.31578179       8.71480347       7.17269986       21      -0.03385435       0.06596491      -0.06097585
H        3.08834514       0.47363034       5.72763811       22       0.02895496      -0.00408106       0.06369595
H        3.34266468       6.27115710      16.93772381       23       0.03521290      -0.01883917       0.07036303
H        1.56704173      13.01666533      16.69223501       24      -0.03440282      -0.02365026      -0.07473081
H        1.31184680       7.22039487       5.48137429       25      -0.03040663      -0.00895271      -0.06572729
H        0.43599997       4.00751359       7.74096233       26      -0.00466216      -0.09422284      -0.03980967
H        0.68900655       2.73732064      18.94867768       27       0.03456181       0.06616766       0.02217875
H        4.21997467       9.48216032      14.67873768       28       0.00550869       0.09982803       0.04443923
H        3.96409350      10.75276253       3.47065465       29      -0.00303005      -0.08764706       0.02097385
H        3.47924224       5.36388248       5.96540915       30      -0.02326100      -0.01477396      -0.06251176
H        3.73317268       1.38063151      17.17613987       31      -0.01857709       0.02282090      -0.05947263
H        1.17679315       8.12520884      16.45355761       32       0.02324901       0.04957134       0.06654935
H        0.92109708      12.10946815       5.24230849       33       0.02895939      -0.02941747       0.06169339
C        3.90355994       9.44642714       9.41398793       34      -0.01895323       0.03508356       0.07378969
C        4.15738046      10.78853087      20.62409305       35       0.02061832       0.00646353       0.13161121
C        0.75227902       4.04229119      13.00410658       36       0.02896547       0.03599158      -0.05059209
C        0.49772317       2.70120766       1.79354896       37       0.03484127       0.06052700      -0.00332788
C        3.96135623      10.73882607       8.90277661       38       0.07911026      -0.00011753       0.09970976
C        4.21673840       9.49700227      20.11419050       39       0.03240822      -0.01940621       0.02669400
C        0.69317318       2.75152766      13.51625234       40      -0.02233610      -0.02529497      -0.03690415
C        0.43928326       3.99348857       2.30504791       41      -0.04326773       0.01812729      -0.04904723
C        0.55811750      11.69225176       9.61243657       42      -0.02479968      -0.00463612       0.00038732
C        0.81309629       8.54375233      20.82323810       43      -0.01419980       0.02347473      -0.00705071
C        4.09804256       1.79828188      12.80656616       44       0.01328638      -0.04161009       0.02705071
C        3.84281372       4.94765582       1.59643427       45       0.05147277      -0.06593710       0.03842543
C        1.17629200      11.31540544      10.81257708       46      -0.05004406      -0.09033431       0.03655643
C        1.43241137       8.92108716      22.02119210       47      -0.01588245       0.04093222       0.12709551
C        3.48044040       2.17539728      11.60739828       48      -0.00805157       0.00787325      -0.09685357
C        3.22511477       4.56931835       0.39852642       49      -0.04588084       0.01183207      -0.17111762
C        1.03230308      10.00720050      11.25742344       50      -0.05575636       0.03303963      -0.08216310
C        0.77727878      10.22834377       0.04612731       51      -0.05120900       0.02798572      -0.04978174
C        3.62274982       3.48190960      11.16240098       52       0.01733869       0.05851381      -0.01335680
C        3.87827198       3.26266396      22.37332060       53       0.04084837      -0.05249789       0.02823654
C        0.69565796      13.05573314       9.13182666       54      -0.17531127      -0.15338147      -0.23723227
C        0.95041677       7.18304924      20.34225563       55      -0.06308879      -0.09209078      -0.21512473
C        3.96018019       0.43503544      13.28894576       56       0.09569488       0.14522132       0.14407021
C        3.70491413       6.30796244       2.07805486       57       0.06340126       0.04196429       0.16794981
C        0.35267877       1.30477930       7.92479015       58      -0.03115587      -0.31995344       0.02149841
C        0.60828756       5.44032919      19.13482882       59      -0.02992123       0.35606939       0.05750499
C        4.30198793      12.18577878      14.49256540       60       0.01024535       0.24225737       0.01598080
C        4.04745659       8.05001606       3.28229146       61      -0.02816732      -0.25433621      -0.03922712
C        2.63280145       2.40418581       4.87272805       62       0.00164464      -0.03072447       0.00080734
C        2.88754203       4.34133723      16.08477687       63       0.00668299      -0.00451228      -0.02905041
C        2.02136587      11.08871697      17.54436747       64       0.04336050      -0.11843532       0.08084178
C        1.76651544       9.14970360       6.33413386       65       0.03694856       0.00284877       0.08173457
C        3.19931926       1.55252961       5.81910143       66       0.03344736       0.12758271       0.07625350
C        3.45488114       5.19165410      17.03045640       67       0.01517316      -0.03594813       0.06661375
C        1.45602721      11.93689769      16.59942343       68      -0.05661976       0.02635407      -0.11380077
C        1.19950922       8.29900026       5.38859817       69       0.02589390       0.04179367      -0.01277031
C        3.91393847       2.12775966       6.88406514       70      -0.00669711      -0.11924522      -0.01375937
C        4.16991558       4.61850050      18.09500085       71      -0.02406003       0.04156917      -0.03153171
C        0.74145210      11.36269518      15.53555691       72      -0.04618885       0.10639245      -0.08365424
C        0.48672590       8.87211698       4.32551608       73      -0.07998929      -0.06107256      -0.12130398
C        4.03281646       3.52144186       6.93495842       74      -0.00918529       0.07075004      -0.04703023
C        4.28704884       3.22369633      18.14512131       75      -0.01613925      -0.01563991      -0.06127238
C        0.62264142       9.96846974      15.48527434       76      -0.02192043      -0.03699961      -0.00905918
C        0.36811192      10.26660744       4.27521997       77       0.00307379       0.03269459       0.01533199
C        3.41630622       4.27445746       5.93529060       78      -0.02470165       0.00699866      -0.00505367
C        3.67113954       2.47035583      17.14618036       79      -0.01088129      -0.01632130       0.00826652
C        1.23855615       9.21575784      16.48387385       80       0.05166675      -0.04227656       0.04294318
C        0.98599320      11.01959924       5.27288595       81      -0.03481104       0.07553977      -0.02038847
I        2.21851653       6.19292951       9.08449230       82       0.06958162       0.04993372      -0.07453246
I        2.47117836       0.55434144      20.29479307       83       0.07329745      -0.05358067      -0.07466766
I        2.43629346       7.29716028      13.33610076       84      -0.06693303      -0.05073480       0.07280894
I        2.18097077      12.93849044       2.12341756       85      -0.06704615       0.04889495       0.07721629
N        0.34541622       9.07688252      10.56338817       86       0.02382711      -0.02801678      -0.03423800
N        0.60014111      11.15910525      21.77387951       87       0.01685158       0.00410798      -0.05719591
N        4.30936683       4.41232557      11.85590476       88      -0.01321151       0.05135417       0.02536808
N        4.05505338       2.33209471       0.64682130       89      -0.06187185      -0.05114397      -0.05186867
N        1.42240042       0.53126284       9.64436468       90       0.05225971       0.00238881       0.26144809
N        1.67970976       6.21210751      20.85203343       91       0.00186784       0.13039523       0.29093537
N        3.23086443      12.95946238      12.77635193       92      -0.05107187       0.05490425      -0.29659182
N        2.97571852       7.27725479       1.56615699       93      -0.03134155      -0.12376702      -0.29599142
N        1.20093752       1.65819260       8.86246209       94      -0.01934518       0.40151173      -0.07928836
N        1.45580465       5.08620021      20.07254335       95      -0.00467768      -0.37614566      -0.08478618
N        3.45102682      11.83199536      13.55521828       96       0.09752007      -0.36211938       0.15781452
N        3.19588245       8.40426194       2.34401431       97       0.13620131       0.33441710       0.19996950
N        2.71775300       3.74213860       4.91843176       98       0.02506727       0.03036967      -0.01944540
N        2.97458475       3.00327867      16.13000828       99      -0.03115641      -0.01356582      -0.07538591
N        1.93687233       9.74950717      17.50012081      100      -0.01966825      -0.01442650       0.02260439
N        1.68132393      10.48839948       6.28991593      101       0.03956003      -0.03521949       0.06852779
O        4.14857980      13.47610603       8.02634518      102       0.11824481       0.01735667       0.07360341
O        4.40500719       6.76032718      19.23909751      103       0.06434192      -0.01389866       0.00071028
O        0.50500316       0.01504042      14.39135208      104      -0.06808123      -0.06129569      -0.00862441
O        0.25036472       6.73050005       3.17983711      105      -0.06647948       0.04324894      -0.00071035
106
Lattice="4.14675197 0.0 0.0 3.176069505694632e-05 13.490650019962613 0.0 0.5105244994741549 -0.00020907573568957152 22.420739192212988" Properties=species:S:1:pos:R:3:spacegroup_kinds:I:1:forces:R:3 spacegroup="P 1" unit_cell=conventional occupancy="_JSON {\"0\": {\"Cd\": 1}, \"1\": {\"Cd\": 1}, \"2\": {\"H\": 1}, \"3\": {\"H\": 1}, \"4\": {\"H\": 1}, \"5\": {\"H\": 1}, \"6\": {\"H\": 1}, \"7\": {\"H\": 1}, \"8\": {\"H\": 1}, \"9\": {\"H\": 1}, \"10\": {\"H\": 1}, \"11\": {\"H\": 1}, \"12\": {\"H\": 1}, \"13\": {\"H\": 1}, \"14\": {\"H\": 1}, \"15\": {\"H\": 1}, \"16\": {\"H\": 1}, \"17\": {\"H\": 1}, \"18\": {\"H\": 1}, \"19\": {\"H\": 1}, \"20\": {\"H\": 1}, \"21\": {\"H\": 1}, \"22\": {\"H\": 1}, \"23\": {\"H\": 1}, \"24\": {\"H\": 1}, \"25\": {\"H\": 1}, \"26\": {\"H\": 1}, \"27\": {\"H\": 1}, \"28\": {\"H\": 1}, \"29\": {\"H\": 1}, \"30\": {\"H\": 1}, \"31\": {\"H\": 1}, \"32\": {\"H\": 1}, \"33\": {\"H\": 1}, \"34\": {\"C\": 1}, \"35\": {\"C\": 1}, \"36\": {\"C\": 1}, \"37\": {\"C\": 1}, \"38\": {\"C\": 1}, \"39\": {\"C\": 1}, \"40\": {\"C\": 1}, \"41\": {\"C\": 1}, \"42\": {\"C\": 1}, \"43\": {\"C\": 1}, \"44\": {\"C\": 1}, \"45\": {\"C\": 1}, \"46\": {\"C\": 1}, \"47\": {\"C\": 1}, \"48\": {\"C\": 1}, \"49\": {\"C\": 1}, \"50\": {\"C\": 1}, \"51\": {\"C\": 1}, \"52\": {\"C\": 1}, \"53\": {\"C\": 1}, \"54\": {\"C\": 1}, \"55\": {\"C\": 1}, \"56\": {\"C\": 1}, \"57\": {\"C\": 1}, \"58\": {\"C\": 1}, \"59\": {\"C\": 1}, \"60\": {\"C\": 1}, \"61\": {\"C\": 1}, \"62\": {\"C\": 1}, \"63\": {\"C\": 1}, \"64\": {\"C\": 1}, \"65\": {\"C\": 1}, \"66\": {\"C\": 1}, \"67\": {\"C\": 1}, \"68\": {\"C\": 1}, \"69\": {\"C\": 1}, \"70\": {\"C\": 1}, \"71\": {\"C\": 1}, \"72\": {\"C\": 1}, \"73\": {\"C\": 1}, \"74\": {\"C\": 1}, \"75\": {\"C\": 1}, \"76\": {\"C\": 1}, \"77\": {\"C\": 1}, \"78\": {\"C\": 1}, \"79\": {\"C\": 1}, \"80\": {\"C\": 1}, \"81\": {\"C\": 1}, \"82\": {\"I\": 1}, \"83\": {\"I\": 1}, \"84\": {\"I\": 1}, \"85\": {\"I\": 1}, \"86\": {\"N\": 1}, \"87\": {\"N\": 1}, \"88\": {\"N\": 1}, \"89\": {\"N\": 1}, \"90\": {\"N\": 1}, \"91\": {\"N\": 1}, \"92\": {\"N\": 1}, \"93\": {\"N\": 1}, \"94\": {\"N\": 1}, \"95\": {\"N\": 1}, \"96\": {\"N\": 1}, \"97\": {\"N\": 1}, \"98\": {\"N\": 1}, \"99\": {\"N\": 1}, \"100\": {\"N\": 1}, \"101\": {\"N\": 1}, \"102\": {\"O\": 1}, \"103\": {\"O\": 1}, \"104\": {\"O\": 1}, \"105\": {\"O\": 1}}" energy=-720.9276123046875 free_energy=-720.9276123046875 stress="0.001188649795949459 2.230369318567682e-06 -0.0003821105929091573 2.230369318567682e-06 -0.0019246522570028901 4.824817006010562e-05 -0.0003821105929091573 4.824817006010562e-05 -0.00227851839736104" pbc="T T T"
Cd       4.40177771       6.74519546      11.21012217        0      -0.01207448      -0.00112630       0.00221595
Cd      -0.00061747      -0.00029891      -0.00018492        1      -0.01287180      -0.00139419      -0.00233280
H        3.35471666       8.65838558       8.89305636        2       0.02864116       0.10137468      -0.02524325
H        3.60990793      11.57580467      20.10399230        3      -0.00250153      -0.06546795      -0.04772466
H        1.29648179       4.83059484      13.52193845        4      -0.00373617      -0.07667830       0.05007211
H        1.04195902       1.91349211       2.31327207        5      -0.00065164       0.07568248       0.04455958
H        3.43643140      10.98320422       7.97641936        6       0.03866772       0.03062261       0.04946113
H        3.69272200       9.25193617      19.18706240        7       0.03092643      -0.03178646       0.03803238
H        1.21732279       2.50894021      14.44131462        8      -0.03346878      -0.04553752      -0.02678779
H        0.96282663       4.23793532       3.22896769        9      -0.02479880       0.04032025      -0.01751781
H        1.77124380      12.02919176      11.38683294       10       0.02945873      -0.01723993       0.03907124
H        1.51489446       8.20733464       0.17883151       11       0.02052006       0.03175142       0.00529429
H        2.88236541       1.46266806      11.03019138       12       0.00314891       0.04275942      -0.00687449
H        3.13929890       5.28360775      22.24077237       13      -0.01431209      -0.02816874      -0.01880914
H        1.49587278       9.68167023      12.18605180       14       0.04276889       0.12997766       0.01586871
H        1.24045603      10.55443736       0.97394315       15       0.07045188      -0.12254980       0.06661748
H        3.15398550       3.80940567      10.23212732       16      -0.02757130      -0.15286273       0.01765943
H        3.40995856       2.93591056      21.44198529       17      -0.01436447       0.16405086       0.04574670
H        2.08369941       1.96925050       4.03463539       18       0.00179712       0.04626711       0.01612796
H        2.33954913       4.77478409      15.24593164       19      -0.02450937      -0.02016343      -0.01638961
H        2.56779548      11.52111751      18.38273271       20       0.00459190      -0.02398557      -0.01216036
H        2.31314069       8.71655992       7.17052588       21       0.01868981       0.01657391       0.01337261
H        3.08731578       0.47267901       5.72836639       22       0.03342981       0.09656894       0.06096767
H        3.34168551       6.27078439      16.93893278       23       0.03261492      -0.02591600       0.06553656
H        1.56521741      13.01582638      16.69003675       24      -0.02894109       0.01022483      -0.06892376
H        1.31036570       7.21989408       5.48064681       25      -0.03342364       0.01314071      -0.07275905
H        0.43522657       4.00592750       7.73972416       26       0.00254846      -0.07248047      -0.03166653
H        0.68758031       2.73885756      18.94698324       27       0.03816421       0.05388616       0.03471965
H        4.22022028       9.48205312      14.67993156       28      -0.03098865       0.07015444      -0.00918752
H        3.96187285      10.75193061       3.47037033       29      -0.00098202      -0.08097789       0.01340720
H        3.47715537       5.36318154       5.96272426       30      -0.02060610       0.03701324      -0.05867708
H        3.73082771       1.38071447      17.17327445       31      -0.01327564       0.04520863      -0.04352234
H        1.17533167       8.12518573      16.45432412       32       0.02513243       0.04374979       0.06576808
H        0.92139103      12.10838598       5.24245908       33       0.02011191       0.03071660       0.05324424
C        3.90259125       9.44609018       9.41471534       34      -0.09485924       0.01694119      -0.05579379
C        4.15582755      10.78864329      20.62494809       35      -0.00945303      -0.00352982       0.04812479
C        0.75048889       4.04229583      13.00182098       36       0.06329438       0.01422417       0.02417850
C        0.49676575       2.70145301       1.79212247       37       0.02366909       0.02670726      -0.01852134
C        3.96080561      10.73870977       8.90296473       38       0.03279820       0.01308011       0.01374233
C        4.21638213       9.49705545      20.11340163       39       0.01642102      -0.03280027       0.00591551
C        0.69180730       2.75074131      13.51556406       40       0.01675946       0.03293522      -0.02139410
C        0.43787060       3.99418629       2.30376139       41      -0.00864661      -0.04071064      -0.02049303
C        0.55770970      11.69226563       9.61137950       42      -0.03228920      -0.04106690       0.02108595
C        0.81250218       8.54324659      20.82211885       43      -0.01178883       0.02837891       0.00210912
C        4.09903286       1.79837988      12.80557760       44      -0.03847487      -0.03043646      -0.02652666
C        3.84168351       4.94695010       1.59573374       45       0.03460099       0.04178879       0.01761399
C        1.17559870      11.31574677      10.81232415       46      -0.05931908      -0.11933617       0.03670879
C        1.43205063       8.92076664      22.02095301       47      -0.04318406       0.06701550       0.10647698
C        3.47994585       2.17680881      11.60488531       48       0.00035723      -0.08567914      -0.02805020
C        3.22485360       4.57063280       0.39607857       49      -0.00941327      -0.05586953      -0.10253690
C        1.03061261      10.00651909      11.25676072       50      -0.02075946       0.08221948      -0.05957025
C        0.77609397      10.22901140       0.04645760       51      -0.05892491      -0.05339991      -0.12420848
C        3.62131703       3.48235789      11.16113300       52       0.01447436       0.06224509      -0.02616194
C        3.87730199       3.26222404      22.37245236       53      -0.00768751      -0.00017034      -0.03899643
C        0.69308115      13.05410603       9.12904803       54      -0.00720574      -0.01287681      -0.05602285
C        0.94832549       7.18145207      20.33935208       55       0.00843822       0.00237055      -0.06441274
C        3.96045456       0.43650849      13.29005011       56      -0.01496692       0.02832065       0.03270639
C        3.70584130       6.30986381       2.07883147       57      -0.02734919      -0.05828700       0.02486223
C        0.35203443       1.30185592       7.92375289       58      -0.05145340      -0.19652560      -0.00975347
C        0.60570205       5.44330778      19.13350427       59       0.05389954       0.19116719       0.07246824
C        4.30256301      12.18549983      14.49219376       60      -0.13265483       0.24954142      -0.14017376
C        4.04728632       8.04753986       3.28104638       61      -0.09315433      -0.07065354      -0.02271178
C        2.63141496       2.40460200       4.87161907       62       0.00106728      -0.01432636      -0.00159484
C        2.88598715       4.34189364      16.08294779       63       0.06189796      -0.07179797       0.05641633
C        2.02059996      11.08897504      17.54443416       64      -0.00881976      -0.07888767       0.00612009
C        1.76625884       9.14905781       6.33332477       65      -0.03904155       0.04667127      -0.01331788
C        3.19831495       1.55493652       5.81870075       66       0.00294229      -0.06037528       0.05666443
C        3.45398862       5.19086535      17.03063517       67      -0.02075688       0.01135054      -0.00384073
C        1.45407572      11.93701346      16.59725519       68      -0.01166350       0.00329109      -0.04722222
C        1.19841584       8.29920193       5.38690828       69       0.02015569       0.03377101      -0.01648020
C        3.91197716       2.12667212       6.88374461       70       0.02495932      -0.02378136      -0.00312726
C        4.16997345       4.61954780      18.09339611       71      -0.04795862       0.01394162      -0.01348369
C        0.73983166      11.36499906      15.53313605       72       0.00273854      -0.07102682       0.00655769
C        0.48432122       8.87264539       4.32334273       73      -0.00717583      -0.13134010      -0.04840397
C        4.03170869       3.52251721       6.93313847       74      -0.02589142      -0.01398470      -0.04280357
C        4.28473370       3.22408657      18.14398240       75       0.01802306       0.01889618      -0.03218453
C        0.62126380       9.96834919      15.48468369       76       0.02943536       0.03212813       0.05651662
C        0.36758647      10.26617022       4.27382985       77      -0.01631172       0.08474530       0.01184823
C        3.41427075       4.27534905       5.93345620       78      -0.00615968      -0.06052351       0.01415628
C        3.66954462       2.47120618      17.14597520       79      -0.03543411      -0.05861306      -0.04388458
C        1.23768328       9.21550006      16.48413008       80       0.01495176       0.00862837      -0.00848824
C        0.98496146      11.02040990       5.27146649       81      -0.00095274      -0.04824895       0.02532147
I        2.21652329       6.19575679       9.08246527       82       0.07159033       0.04512357      -0.07343789
I        2.46882817       0.55262681      20.29238923       83       0.07495232      -0.05126753      -0.07239182
I        2.43355080       7.29421671      13.33875948       84      -0.06267344      -0.04672343       0.06633191
I        2.17813708      12.93864791       2.12508604       85      -0.06391812       0.05016684       0.07207174
N        0.34378624       9.07633903      10.56173422       86       0.06793100      -0.04245424       0.05918454
N        0.59900015      11.15921764      21.77322931       87       0.02532947       0.01866043      -0.01202443
N        4.30793991       4.41281043      11.85539553       88      -0.02817380       0.06004778      -0.01711024
N        4.05267256       2.33100143       0.64453715       89      -0.00985612      -0.02900767       0.03411847
N        1.42143694       0.53059348       9.64717694       90      -0.05997332       0.01537541       0.09029652
N        1.67778536       6.21347111      20.85426207       91      -0.03500995       0.00192174       0.16330667
N        3.22822971      12.96195241      12.77347592       92       0.04762494      -0.00649503      -0.13963360
N        2.97357595       7.27531548       1.56318335       93       0.03085647      -0.00879675      -0.15766481
N        1.19815709       1.66075081       8.85975295       94       0.03176199       0.25367895       0.04418319
N        1.45379385       5.08340327      20.06984172       95      -0.01997909      -0.22613296      -0.02052736
N        3.44953941      11.82951892      13.55507486       96       0.12536961      -0.20751792       0.11782546
N        3.19403615       8.40699759       2.34601873       97       0.12444218       0.18214676       0.09931809
N        2.71606421       3.74207777       4.91680788       98       0.01816437       0.04726565      -0.02658978
N        2.97347407       3.00320832      16.12827740       99      -0.02986364       0.02412589      -0.06598325
N        1.93536765       9.75066937      17.49946239      100       0.00355861      -0.03988074       0.05746344
N        1.68015127      10.48757338       6.28967953      101       0.01896510       0.00799066       0.02499983
O        4.14896183      13.47498677       8.02770579      102       0.04628342      -0.02039897      -0.02986471
O        4.40503563       6.76047984      19.23852798      103      -0.00160203       0.03115208      -0.06418682
O        0.50270783       0.01409113      14.39041340      104      -0.01194685      -0.01198965       0.03306913
O        0.24898322       6.73208006       3.17899907      105      -0.00555442      -0.03681026       0.02864337
106