108
Lattice="9.55644063 0.0 0.0 0.03599952143164119 10.795819488528629 0.0 0.20507331379383076 -0.1343060411205751 23.73918333778332" Properties=species:S:1:pos:R:3:spacegroup_kinds:I:1:forces:R:3 spacegroup="P 1" unit_cell=conventional occupancy="_JSON {\"0\": {\"Zn\": 1}, \"1\": {\"Zn\": 1}, \"2\": {\"H\": 1}, \"3\": {\"H\": 1}, \"4\": {\"H\": 1}, \"5\": {\"H\": 1}, \"6\": {\"H\": 1}, \"7\": {\"H\": 1}, \"8\": {\"H\": 1}, \"9\": {\"H\": 1}, \"10\": {\"H\": 1}, \"11\": {\"H\": 1}, \"12\": {\"H\": 1}, \"13\": {\"H\": 1}, \"14\": {\"H\": 1}, \"15\": {\"H\": 1}, \"16\": {\"H\": 1}, \"17\": {\"H\": 1}, \"18\": {\"H\": 1}, \"19\": {\"H\": 1}, \"20\": {\"H\": 1}, \"21\": {\"H\": 1}, \"22\": {\"H\": 1}, \"23\": {\"H\": 1}, \"24\": {\"H\": 1}, \"25\": {\"H\": 1}, \"26\": {\"H\": 1}, \"27\": {\"H\": 1}, \"28\": {\"H\": 1}, \"29\": {\"H\": 1}, \"30\": {\"H\": 1}, \"31\": {\"H\": 1}, \"32\": {\"H\": 1}, \"33\": {\"H\": 1}, \"34\": {\"H\": 1}, \"35\": {\"H\": 1}, \"36\": {\"H\": 1}, \"37\": {\"H\": 1}, \"38\": {\"C\": 1}, \"39\": {\"C\": 1}, \"40\": {\"C\": 1}, \"41\": {\"C\": 1}, \"42\": {\"C\": 1}, \"43\": {\"C\": 1}, \"44\": {\"C\": 1}, \"45\": {\"C\": 1}, \"46\": {\"C\": 1}, \"47\": {\"C\": 1}, \"48\": {\"C\": 1}, \"49\": {\"C\": 1}, \"50\": {\"C\": 1}, \"51\": {\"C\": 1}, \"52\": {\"C\": 1}, \"53\": {\"C\": 1}, \"54\": {\"C\": 1}, \"55\": {\"C\": 1}, \"56\": {\"C\": 1}, \"57\": {\"C\": 1}, \"58\": {\"C\": 1}, \"59\": {\"C\": 1}, \"60\": {\"C\": 1}, \"61\": {\"C\": 1}, \"62\": {\"C\": 1}, \"63\": {\"C\": 1}, \"64\": {\"C\": 1}, \"65\": {\"C\": 1}, \"66\": {\"C\": 1}, \"67\": {\"C\": 1}, \"68\": {\"C\": 1}, \"69\": {\"C\": 1}, \"70\": {\"C\": 1}, \"71\": {\"C\": 1}, \"72\": {\"C\": 1}, \"73\": {\"C\": 1}, \"74\": {\"C\": 1}, \"75\": {\"C\": 1}, \"76\": {\"C\": 1}, \"77\": {\"C\": 1}, \"78\": {\"C\": 1}, \"79\": {\"C\": 1}, \"80\": {\"C\": 1}, \"81\": {\"C\": 1}, \"82\": {\"C\": 1}, \"83\": {\"C\": 1}, \"84\": {\"C\": 1}, \"85\": {\"C\": 1}, \"86\": {\"C\": 1}, \"87\": {\"C\": 1}, \"88\": {\"N\": 1}, \"89\": {\"N\": 1}, \"90\": {\"N\": 1}, \"91\": {\"N\": 1}, \"92\": {\"N\": 1}, \"93\": {\"N\": 1}, \"94\": {\"N\": 1}, \"95\": {\"N\": 1}, \"96\": {\"O\": 1}, \"97\": {\"O\": 1}, \"98\": {\"O\": 1}, \"99\": {\"O\": 1}, \"100\": {\"O\": 1}, \"101\": {\"O\": 1}, \"102\": {\"O\": 1}, \"103\": {\"O\": 1}, \"104\": {\"O\": 1}, \"105\": {\"O\": 1}, \"106\": {\"O\": 1}, \"107\": {\"O\": 1}}" energy=-737.2459716796875 free_energy=-737.2459716796875 stress="-0.001869339612312615 0.00021544039191212505 -0.0015338935190811753 0.00021544039191212505 -0.007510246708989143 -0.0009066674392670393 -0.0015338935190811753 -0.0009066674392670393 -0.0031355787068605423" pbc="T T T"
Zn       6.29399267       5.31169786      11.85311010        0       0.03089144       0.05442355      -0.05299955
Zn       3.55749768       5.29117211      11.87786991        1      -0.07052417      -0.04001357      -0.29009196
H        5.24573448       8.87098100      22.32380016        2       0.23288718       1.58648562      -0.87422490
H        2.71442676       5.08702784      16.06622078        3      -0.04587013       0.05733686       0.01831979
H        6.98144693       5.44883524      16.14285474        4       0.21068379      -0.08349701      -0.12740941
H        6.92972850       5.62124430      18.64148391        5       0.20411731       0.07560569       0.06672287
H        6.91339509       9.63764247      12.53866050        6      -0.53916490       0.18342388       0.17550196
H        2.72411714       9.40771262      11.46333640        7       0.49880019       0.36147586       0.23655306
H        5.70733967       9.49388098      13.82377751        8      -0.08132846       0.07914744       0.06691512
H        3.19120076       9.67536550      13.14654501        9       0.17538130       0.11726715      -0.16481690
H        5.19157651       1.00524014      13.79033295       10       0.04430210       0.19659470       0.10546894
H        3.01492646       1.22498985      12.70753381       11      -0.10754319       0.01572218       0.09669822
H        6.70019290       1.17730696      12.89664486       12       0.42728901       0.32565185      -0.02626263
H        2.84739201       0.93537548      10.97913199       13       0.07514459       0.11325237       0.03319784
H        6.22350853       9.33735562      10.08502532       14      -0.25514850       0.17445698       0.13114014
H        4.50240168       9.55861364       9.70519056       15       0.42213553       0.25861359       0.24739097
H        1.37414482       7.36469150      11.65322171       16       0.08271171       0.06425832      -0.00715506
H        8.60665904       7.41211401      11.51573022       17       0.01580637       0.20737934      -0.12058634
H        1.32881231       5.80213533       9.89833004       18       0.12655585       0.15798627       0.10041296
H        8.48037829       5.75756695       9.87452079       19       0.11276805      -0.04482406       0.18442413
H        1.25276190       3.31648995      12.53278838       20      -0.07899539       0.40114242       0.16679211
H        8.42521132       3.39081276      12.63853997       21       0.30940142       0.54764414      -0.03884098
H        1.34985746       4.49739672      13.87166138       22      -0.03655638       0.01186228      -0.20815028
H        8.48021003       4.60674199      13.90581723       23       0.13277793       0.14665340      -0.11087575
H        1.32533668       4.07752090      10.28864993       24      -0.13748415       0.18896802      -0.12387224
H        8.49596723       4.04407550      10.31412224       25       0.40093690       0.69626296       0.22198777
H        3.93745710       2.48884480       1.34947674       26       0.09368954       0.65283793      -0.44000944
H        4.13283267       2.27493903      22.57955346       27       0.12392047       0.39561877      -0.02291062
H        6.51446596       4.71389996       4.88338079       28      -0.09575129       0.06250944      -0.00710915
H        3.01527717       6.75186256       7.76609318       29       0.06576505       0.09127736      -0.01057810
H        2.86964716       6.95492697       5.26600225       30      -0.29938802       0.25554946      -0.19580857
H        2.63289209       5.25691337      18.56174444       31       0.21946168       0.03857109      -0.02576593
H        7.56599541       0.46820054      11.03487094       32       0.13683048      -0.01143479       0.04452158
H        7.37226112       0.45663789       9.25572776       33       0.03309443       0.02812445       0.21767808
H        7.21019913       1.92729979      10.14702745       34       0.27042606       1.95460629      -0.00819207
H        5.01221115       2.21064934       8.97005480       35       0.28809392       1.92052150      -0.14305288
H        5.17374469       0.67950197       8.18570093       36      -0.04649936       0.09458034       0.17952757
H        3.68813232       1.02186407       9.12583031       37       1.08321929       0.31458902       0.00065924
C        4.94677495       7.89325211      11.89227840       38       0.51554120      -1.26801825      -0.47043264
C        5.08664329       8.02415593      22.91289666       39      -0.13261077      -1.57542193       0.74968463
C        4.87867791       8.22555162       0.59130954       40      -0.15182216      -0.62425727      -0.19281021
C        4.69906431       7.05665565       1.35225792       41      -0.01260006      -0.18354000      -0.32449427
C        4.49657685       5.82008586       0.69763743       42       0.07022643       0.03516061      -0.73311734
C        4.28899062       4.61463012       1.41026001       43       0.03349259       0.03909913       0.49284580
C        4.08628969       3.41454442       0.74457368       44      -0.01880887      -0.57298201       0.57104796
C        4.30588324       3.23675023      23.08502145       45      -0.17777988      -0.51365674      -0.06793246
C        4.75947321       7.10299421       2.83028748       46      -0.69165301      -3.25931644      -1.45475209
C        4.28081461       4.63104956       2.89212604       47      -0.57407063      -0.85030037       0.89367330
C        5.76163338       5.19589074       5.51208483       48       0.22148255      -0.30844682       0.13559562
C        4.88499871       5.52469604       9.22040408       49      -0.37314633       0.71053898      -0.49922138
C        5.85796141       5.08632018       6.90886600       50       0.52099186      -0.05233202       0.18268086
C        4.86172871       5.67985692       7.72373803       51       0.16651165      -0.42306718       0.12403610
C        3.80501305       6.36277826       7.12382842       52      -0.07548201      -0.12056008      -0.45107183
C        3.71338484       6.46989187       5.72757770       53      -0.10410684      -0.02401448       0.92013597
C        4.68770270       5.86547327       4.95797477       54       0.03507773      -0.04352616      -0.92054939
C        3.59728603       5.31410658      18.04377064       55      -0.95205927      -0.33792573      -1.15840960
C        3.63450799       5.20152833      16.63369976       56       0.19355223       0.11276472       0.76885325
C        4.85954284       5.25209543      15.95382281       57      -0.78816283      -0.68810022      -0.22440046
C        6.04206862       5.36758289      16.67429425       58       0.33168545       0.63138139       0.75325060
C        6.01844261       5.51830047      18.06518201       59      -0.76608640      -0.43766469      -0.12987915
C        4.89890835       2.69531658      11.62733177       60       0.43862170       2.90568995       0.17232460
C        4.77298169       5.44397273      18.73941165       61       1.28540730       0.40379459      -0.37299135
C        5.87520244       9.93374019      12.83241164       62       1.04484427       1.34631360       0.03005140
C        3.49141820       9.91151668      12.10922691       63      -0.46505877       1.22799730      -0.25815046
C        5.72273093       0.72252653      12.87388877       64      -0.47088820      -1.74076128       0.15340745
C        3.46024774       0.69869151      11.85714282       65      -0.25071186      -1.57830632       0.09417259
C        5.30922650       9.87172630      10.41304017       66      -0.11112013      -0.92662525      -0.85863662
C        4.90098108       9.37311914      11.81095260       67      -0.42483300       1.36694765      -0.00948413
C        4.89926157       1.21623403      11.66509870       68       0.00264564      -1.40960717      -0.04669876
C        5.50596435       0.58986574      10.33022767       69      -0.24227354       0.51924646       0.70568913
C        0.96090503       6.63762732      12.36802723       70      -0.42039719       1.08215833      -0.16775861
C        8.92795617       6.73309948      12.31162569       71       0.54803991      -0.46564296      -0.28395209
C        0.90871799       5.05896480      10.57758884       72      -0.07814813      -1.01118016      -0.13110375
C        8.93114061       5.04487834      10.58199607       73      -0.63738114      -0.61524701      -0.06024885
C        0.89423047       4.31086703      12.88775461       74      -0.43491265      -1.36230958       0.25322267
C        8.90069703       4.36518240      12.91873995       75      -0.15683293      -0.74366277       0.16354263
C        4.87011185       5.10316244      14.46154174       76       1.91932273       1.30192828       0.51930761
C        4.51854150       4.31973612      20.85772264       77      -0.28317997      -0.13821355       0.27012596
C        4.96126967       6.78711615      20.76861307       78      -0.50451708      -2.82850409       2.03611064
C        4.92305137       6.81888368      22.25850398       79      -0.09759168      -0.14021032       0.18834323
C        4.71165325       5.63185696      22.99877088       80      -0.03287524      -0.12413041       0.40457958
C        4.51050367       4.39459503      22.34805413       81       0.09365424      -0.01212231      -0.35978723
C        7.01118374       0.90767332      10.20151258       82      -0.17666221      -2.16630697      -0.40615088
C        4.81311138       1.19493336       9.09918864       83      -1.45899093      -2.36339617      -0.44379729
C        5.03331593       9.50909385       1.15971797       84      -0.35545802      -3.55624723      -0.91597563
C        1.46787675       7.05645546      13.69136203       85      -0.63495171      -1.25050080      -2.05609179
C        8.35418012       7.23502766      13.55784659       86       0.52662760      -0.92547411      -1.33703065
C        7.00087044       4.35235531       7.42547252       87      -5.96402073       3.62797689      -1.95238590
N        4.75699581       5.52762701      20.17013614       88      -0.14331609      -0.76961935       0.22873896
N        4.56299547       5.87623436       3.50793519       89       0.03197075      -0.86610585       0.05516898
N        1.40304951       5.29125852      11.94732093       90       0.91861218       1.19904470       0.09238511
N        8.42196101       5.37777204      11.95181730       91      -0.43418455       0.09853791      -0.26234403
N        5.14360264      10.60221682       1.42935002       92       0.42929453       4.48543787       1.15013444
N        1.79915754       7.32074932      14.75881853       93       0.80494034       0.79314053       2.15037060
N        7.94417001       7.63121234      14.55793703       94      -0.76337969       0.85454500       1.72834325
N        7.92413504       3.79202353       7.71195284       95       5.42735958      -3.34104872       1.66780961
O        6.07287836       7.33310351      11.64240832       96      -0.36977136       0.02993940       0.12846783
O        3.88044404       7.27409288      12.17726547       97      -0.20584394      -0.22753225       0.15704328
O        5.99356745       5.24169958       9.75566402       98       0.34805605      -0.27524590       0.47636047
O        3.78910412       5.77453449       9.82251571       99      -0.08935177      -0.26830822       0.38824260
O        6.03238908       3.31100518      11.86309061      100      -1.51179993      -0.99380553      -0.37297750
O        3.79612109       3.34155118      11.38147547      101       1.15979087      -0.83359778       0.27429977
O        5.99864295       5.35938724      13.88325003      102      -0.42148224      -0.40209794       0.10288513
O        3.79718545       4.87773212      13.86203622      103      -1.30703592      -0.57024848      -0.61880064
O        4.29537127       3.26382711      20.26377835      104       0.14446770       0.25533962       0.01603863
O        5.15284542       7.73618459      20.09695452      105       0.67014575       3.45986223      -2.10651755
O        4.97130707       8.07960486       3.45470320      106       0.79644531       3.76768804       2.03004551
O        3.98644217       3.62312857       3.57800419      107       0.56371391       1.28402495      -0.87626112
108
Lattice="9.55644063 0.0 0.0 0.03599952143164119 10.795819488528629 0.0 0.20507331379383076 -0.1343060411205751 23.73918333778332" Properties=species:S:1:pos:R:3:spacegroup_kinds:I:1:forces:R:3 spacegroup="P 1" unit_cell=conventional occupancy="_JSON {\"0\": {\"Zn\": 1}, \"1\": {\"Zn\": 1}, \"2\": {\"H\": 1}, \"3\": {\"H\": 1}, \"4\": {\"H\": 1}, \"5\": {\"H\": 1}, \"6\": {\"H\": 1}, \"7\": {\"H\": 1}, \"8\": {\"H\": 1}, \"9\": {\"H\": 1}, \"10\": {\"H\": 1}, \"11\": {\"H\": 1}, \"12\": {\"H\": 1}, \"13\": {\"H\": 1}, \"14\": {\"H\": 1}, \"15\": {\"H\": 1}, \"16\": {\"H\": 1}, \"17\": {\"H\": 1}, \"18\": {\"H\": 1}, \"19\": {\"H\": 1}, \"20\": {\"H\": 1}, \"21\": {\"H\": 1}, \"22\": {\"H\": 1}, \"23\": {\"H\": 1}, \"24\": {\"H\": 1}, \"25\": {\"H\": 1}, \"26\": {\"H\": 1}, \"27\": {\"H\": 1}, \"28\": {\"H\": 1}, \"29\": {\"H\": 1}, \"30\": {\"H\": 1}, \"31\": {\"H\": 1}, \"32\": {\"H\": 1}, \"33\": {\"H\": 1}, \"34\": {\"H\": 1}, \"35\": {\"H\": 1}, \"36\": {\"H\": 1}, \"37\": {\"H\": 1}, \"38\": {\"C\": 1}, \"39\": {\"C\": 1}, \"40\": {\"C\": 1}, \"41\": {\"C\": 1}, \"42\": {\"C\": 1}, \"43\": {\"C\": 1}, \"44\": {\"C\": 1}, \"45\": {\"C\": 1}, \"46\": {\"C\": 1}, \"47\": {\"C\": 1}, \"48\": {\"C\": 1}, \"49\": {\"C\": 1}, \"50\": {\"C\": 1}, \"51\": {\"C\": 1}, \"52\": {\"C\": 1}, \"53\": {\"C\": 1}, \"54\": {\"C\": 1}, \"55\": {\"C\": 1}, \"56\": {\"C\": 1}, \"57\": {\"C\": 1}, \"58\": {\"C\": 1}, \"59\": {\"C\": 1}, \"60\": {\"C\": 1}, \"61\": {\"C\": 1}, \"62\": {\"C\": 1}, \"63\": {\"C\": 1}, \"64\": {\"C\": 1}, \"65\": {\"C\": 1}, \"66\": {\"C\": 1}, \"67\": {\"C\": 1}, \"68\": {\"C\": 1}, \"69\": {\"C\": 1}, \"70\": {\"C\": 1}, \"71\": {\"C\": 1}, \"72\": {\"C\": 1}, \"73\": {\"C\": 1}, \"74\": {\"C\": 1}, \"75\": {\"C\": 1}, \"76\": {\"C\": 1}, \"77\": {\"C\": 1}, \"78\": {\"C\": 1}, \"79\": {\"C\": 1}, \"80\": {\"C\": 1}, \"81\": {\"C\": 1}, \"82\": {\"C\": 1}, \"83\": {\"C\": 1}, \"84\": {\"C\": 1}, \"85\": {\"C\": 1}, \"86\": {\"C\": 1}, \"87\": {\"C\": 1}, \"88\": {\"N\": 1}, \"89\": {\"N\": 1}, \"90\": {\"N\": 1}, \"91\": {\"N\": 1}, \"92\": {\"N\": 1}, \"93\": {\"N\": 1}, \"94\": {\"N\": 1}, \"95\": {\"N\": 1}, \"96\": {\"O\": 1}, \"97\": {\"O\": 1}, \"98\": {\"O\": 1}, \"99\": {\"O\": 1}, \"100\": {\"O\": 1}, \"101\": {\"O\": 1}, \"102\": {\"O\": 1}, \"103\": {\"O\": 1}, \"104\": {\"O\": 1}, \"105\": {\"O\": 1}, \"106\": {\"O\": 1}, \"107\": {\"O\": 1}}" energy=-735.717529296875 free_energy=-735.717529296875 stress="-0.00281545496545732 0.0007802765467204154 -0.003403852228075266 0.0007802765467204154 -0.011321497149765491 -0.0030306640546768904 -0.003403852228075266 -0.0030306640546768904 -0.005807127337902784" pbc="T T T"
Zn       6.32151093       5.34032521      11.82346419        0       0.03755749       0.03789777      -0.04808985
Zn       3.58650847       5.31596533      11.85982216        1      -0.03511864      -0.00711527      -0.36005795
H        5.27491995       8.84201850      22.29462823        2       0.23988655       1.60689831      -0.84621632
H        2.73713538       5.08663596      16.09077854        3      -0.33064023       0.09431779      -0.36587378
H        7.01068152       5.41921543      16.11286351        4       0.07198701      -0.10173817       0.02848097
H        6.95759106       5.60216905      18.61272587        5       0.35332513       0.04231120       0.20859863
H        6.92071059       9.60799221      12.50884575        6      -0.44162568       0.10543724       0.24602604
H        2.70735022       9.38658864      11.43840145        7       0.96230567       0.50520772       0.29340446
H        5.69228109       9.46585058      13.79386417        8      -0.00544709       0.10318732       0.00483382
H        3.17301792       9.64647747      13.11657726        9       0.45899045       0.17381224      -0.34423339
H        5.21658230       0.97774759      13.76200402       10       0.11484711       0.20764554       0.03623387
H        3.04421170       1.23470738      12.67907918       11      -0.04484425      -0.11334416      -0.02736987
H        6.72896413       1.14762352      12.86691288       12       0.46742117       0.33709282       0.01231738
H        2.87404847       0.92272281      10.95244521       13       0.07327037       0.17192328       0.02949375
H        6.24230812       9.30756077      10.05519289       14      -0.10992889       0.12282425       0.17821264
H        4.52823953       9.52977284       9.67520262       15       0.46303809       0.31217799       0.36380669
H        1.39980109       7.34521853      11.62323187       16      -0.03968783      -0.02465749       0.12105612
H        8.63148774       7.43976957      11.48849233       17       0.10784000       0.08503403       0.12298965
H        1.35087220       5.79577751       9.87739670       18       0.00890241       0.21714330       0.29841286
H        8.50873166       5.76177951       9.84588947       19       0.15326294      -0.05963857       0.40588152
H        1.22876098       3.29720713      12.50587837       20      -0.09706964       1.23707855       0.53475559
H        8.40261649       3.36572578      12.64616562       21       1.04890871       1.77876616       0.14091542
H        1.33244915       4.51459739      13.86453456       22       0.38300109       0.06967807       0.12446599
H        8.45710491       4.61875502      13.88610713       23       0.34614971       0.29701185      -0.00753746
H        1.30705482       4.09046680      10.26081831       24      -0.21378095       0.55736423       0.17420736
H        8.48798910       4.05696917      10.33491399       25       0.82488388       1.14725804       0.25058788
H        3.91127566       2.51840835       1.37823455       26       0.34330982       1.06267703      -1.07187867
H        4.13141015       2.30444142      22.60751391       27       0.10734272       0.00569007      -0.52275032
H        6.53456639       4.73014763       4.85870250       28       0.08671540      -0.13906060      -0.18578157
H        3.01319393       6.72196060       7.73876595       29       0.10006133       0.25465783      -0.00200494
H        2.89268122       6.95712010       5.24411847       30      -0.56993866       0.41407454      -0.31632298
H        2.65084483       5.27410127      18.58177883       31       0.97303373       0.06747613      -0.66054726
H        7.53683780       0.47127077      11.06035633       32       0.32955754      -0.10766041      -0.30488253
H        7.36146673       0.48127756       9.28191973       33       1.15680194      -1.36370730      -2.12911844
H        7.23884358       1.89826273      10.11901820       34       0.15282118       1.98971081       0.08257504
H        5.04121522       2.18105525       8.96733808       35       0.37223595       2.15817165      -0.09433215
H        5.19966917       0.70886169       8.20277654       36       0.41159159      -1.05356193      -1.69680977
H        3.67103947       1.05101778       9.15574605       37       2.01846886       0.10872599      -0.38836780
C        4.97654167       7.92305213      11.90714095       38       1.09278941      -1.60071552      -1.54413223
C        5.11576144       7.99538847      22.88379302       39      -0.08050601      -1.29356194       0.75171208
C        4.90779199       8.19570607       0.56172796       40      -0.10964122      -0.20296034      -0.42916963
C        4.72607008       7.03747016       1.32360798       41       0.00951457      -0.25261408      -0.01533496
C        4.52606010       5.81894736       0.66793185       42       0.04715533      -0.31830388      -0.34187835
C        4.31881385       4.59364990       1.38405792       43       0.42778081       1.92754209       1.08673775
C        4.11523838       3.44164908       0.73106019       44      -0.58082712      -2.67194462       0.03213687
C        4.33554696       3.26644802      23.06100698       45      -0.26782995      -0.38021696       0.70942581
C        4.78532904       7.07317616       2.80044092       46      -0.69676465      -3.28392315      -1.53024864
C        4.30940637       4.60198353       2.86275604       47      -1.01051021      -0.47661442       1.91704869
C        5.78703103       5.19874463       5.48749474       48      -0.22388230       0.13321985       0.32642698
C        4.91472556       5.54875251       9.19287252       49      -0.51860499       0.76842284      -0.12177950
C        5.88714743       5.08500197       6.88093244       50       0.12115628       0.28112099       0.74123263
C        4.88974929       5.70924491       7.72198573       51       0.55677056      -0.69474995      -1.41933858
C        3.83464319       6.39270005       7.10290332       52       0.08216846      -0.42737174      -0.35445133
C        3.74201149       6.49972420       5.70263913       53       0.33051151      -0.28765106       0.98687685
C        4.71754726       5.89495029       4.92956260       54       0.12987086      -0.66612297      -0.67000765
C        3.62647007       5.33668454      18.01712126       55      -1.62368643      -0.34363472      -0.26255757
C        3.66424672       5.23086117      16.61618542       56       0.18124035       0.08019163       0.67860371
C        4.88185348       5.28173699      15.92437443       57      -0.42801589      -0.80405307       0.26326865
C        6.07145064       5.35162840      16.65826812       58       0.20068520       0.80549264       0.17668638
C        6.04747037       5.50614109      18.04386240       59      -0.74504811      -0.41178340      -0.20946378
C        4.91743608       2.71912266      11.60638322       60       1.06391692       2.18262196       0.09210342
C        4.80154092       5.45550803      18.70955983       61       1.23564506      -0.02771370      -0.17996763
C        5.88750874       9.90676249      12.80585633       62       1.28560138       2.05012918       0.24901208
C        3.50671515       9.88188373      12.07994867       63      -0.83646393       1.98559856      -0.27942464
C        5.75233756       0.69254535      12.84576825       64      -0.62367010      -1.32945395       0.29545477
C        3.49016023       0.69564487      11.82962319       65      -0.57620990      -1.74185228       0.27945507
C        5.33837246       9.84933438      10.38334847       66      -0.38289061      -0.72383183      -0.92682159
C        4.93064767       9.40162745      11.78224523       67      -0.97639048      -0.15938006       0.18155985
C        4.92909459       1.20336961      11.63531514       68       0.00290139      -0.89276397       0.00468657
C        5.53254545       0.56020015      10.30035927       69      -0.33201468       1.01254201       0.57893455
C        0.97603331       6.61053329      12.33891057       70       0.01326492       3.04323816       0.23301890
C        8.95568970       6.76190917      12.29711406       71       0.66073972      -0.94739079      -1.09969783
C        0.91140186       5.08826114      10.59152390       72       0.71935725      -1.91822374      -1.52636111
C        8.96009214       5.07368768      10.58749351       73      -1.56142259      -1.18018699      -0.52728122
C        0.90590291       4.33355228      12.88428264       74      -0.29783732      -2.32092333      -0.55070055
C        8.93040853       4.39362688      12.91954453       75      -1.43405092      -1.82538795      -0.46315104
C        4.90003991       5.13162767      14.44229123       76       1.73288250       1.22647727      -0.05546609
C        4.54565890       4.34944585      20.86067192       77      -0.68812126      -1.01670623      -0.08153290
C        4.98828729       6.75719230      20.73877244       78      -0.42898211      -2.59973288       1.97227287
C        4.94995679       6.78900408      22.22861935       79       0.15567204       1.49058676      -0.36763215
C        4.74086041       5.66155940      22.97572997       80      -0.27589011      -1.95896578       1.17803526
C        4.53974769       4.42307730      22.33498311       81       0.14176346      -0.31119323      -0.29428652
C        7.03638293       0.87807949      10.17178418       82      -1.17059135      -0.79804480       2.24584746
C        4.84182102       1.16708325       9.06992466       83      -2.98588133      -1.17852318       1.68854237
C        5.06199758       9.47913774       1.12974516       84      -0.33635318      -3.43931317      -0.91501141
C        1.49716783       7.08080448      13.66322738       85      -1.35525537      -1.94528401      -4.11604786
C        8.38371449       7.21678025      13.52793819       86      -0.82465947       0.56336665       1.82517469
C        7.02303860       4.32282657       7.39601201       87      -9.90452766       6.24971008      -3.31021595
N        4.78386429       5.50050182      20.14150154       88       0.16169937       0.51720256       0.22466554
N        4.58699028       5.84638175       3.47836751       89       0.24282700      -0.08567800      -0.06490005
N        1.43104534       5.31119565      11.92516024       90       0.75216597       0.17865010       0.83658022
N        8.44984173       5.40246732      11.93768843       91      -0.76340312       0.08352736       0.05310410
N        5.17284082      10.57245878       1.39935713       92       0.42528978       4.44937229       1.13927460
N        1.81724211       7.29102407      14.72982011       93       1.38739789       1.20916033       4.03773165
N        7.91902268       7.60150599      14.54012366       94       0.35638219      -0.14616261      -0.72273952
N        7.91384767       3.77004219       7.68752008       95       9.21795464      -5.80917645       2.99710608
O        6.10278398       7.35301404      11.62025311       96      -0.69151026       0.22987738       0.46271646
O        3.91018648       7.30280787      12.14815776       97      -0.51233619      -0.48893955       0.49475408
O        6.02191357       5.27101645       9.72736679       98       0.55004817      -0.35673201       0.59261620
O        3.81777448       5.80034385       9.79297327       99      -0.21041051      -0.30120629       0.60274625
O        6.06038817       3.33894562      11.83676827      100      -1.78870201      -1.28085685      -0.35827404
O        3.82476381       3.36734342      11.35581214      101       0.96468759      -0.92841089       0.29023021
O        6.02777154       5.38871847      13.85516807      102      -0.57797736      -0.45900470       0.33403808
O        3.82648518       4.90040640      13.83341727      103      -1.07943690      -0.50835782      -0.39425200
O        4.27097062       3.29147642      20.29322284      104       0.13704392      -0.23838201      -0.23330794
O        5.18175660       7.70731627      20.06702235      105       0.65269732       3.40582705      -1.99198580
O        4.99157509       8.04970167       3.42521633      106       0.81351483       3.90978670       2.10546875