94
Lattice="8.79139967 0.0 0.0 0.0016682973464376906 9.136723947690703 0.0 0.0012904207300469526 -0.08947916651225281 12.375129924538921" Properties=species:S:1:pos:R:3:spacegroup_kinds:I:1:forces:R:3 spacegroup="P 1" unit_cell=conventional occupancy="_JSON {\"0\": {\"Fe\": 1}, \"1\": {\"Fe\": 1}, \"2\": {\"H\": 1}, \"3\": {\"H\": 1}, \"4\": {\"H\": 1}, \"5\": {\"H\": 1}, \"6\": {\"H\": 1}, \"7\": {\"H\": 1}, \"8\": {\"H\": 1}, \"9\": {\"H\": 1}, \"10\": {\"H\": 1}, \"11\": {\"H\": 1}, \"12\": {\"H\": 1}, \"13\": {\"H\": 1}, \"14\": {\"H\": 1}, \"15\": {\"H\": 1}, \"16\": {\"H\": 1}, \"17\": {\"H\": 1}, \"18\": {\"H\": 1}, \"19\": {\"H\": 1}, \"20\": {\"H\": 1}, \"21\": {\"H\": 1}, \"22\": {\"H\": 1}, \"23\": {\"H\": 1}, \"24\": {\"H\": 1}, \"25\": {\"H\": 1}, \"26\": {\"H\": 1}, \"27\": {\"H\": 1}, \"28\": {\"H\": 1}, \"29\": {\"H\": 1}, \"30\": {\"H\": 1}, \"31\": {\"H\": 1}, \"32\": {\"H\": 1}, \"33\": {\"H\": 1}, \"34\": {\"C\": 1}, \"35\": {\"C\": 1}, \"36\": {\"C\": 1}, \"37\": {\"C\": 1}, \"38\": {\"C\": 1}, \"39\": {\"C\": 1}, \"40\": {\"C\": 1}, \"41\": {\"C\": 1}, \"42\": {\"C\": 1}, \"43\": {\"C\": 1}, \"44\": {\"C\": 1}, \"45\": {\"C\": 1}, \"46\": {\"C\": 1}, \"47\": {\"C\": 1}, \"48\": {\"C\": 1}, \"49\": {\"C\": 1}, \"50\": {\"C\": 1}, \"51\": {\"C\": 1}, \"52\": {\"C\": 1}, \"53\": {\"C\": 1}, \"54\": {\"C\": 1}, \"55\": {\"C\": 1}, \"56\": {\"C\": 1}, \"57\": {\"C\": 1}, \"58\": {\"C\": 1}, \"59\": {\"C\": 1}, \"60\": {\"C\": 1}, \"61\": {\"C\": 1}, \"62\": {\"S\": 1}, \"63\": {\"S\": 1}, \"64\": {\"S\": 1}, \"65\": {\"S\": 1}, \"66\": {\"N\": 1}, \"67\": {\"N\": 1}, \"68\": {\"N\": 1}, \"69\": {\"N\": 1}, \"70\": {\"N\": 1}, \"71\": {\"N\": 1}, \"72\": {\"N\": 1}, \"73\": {\"N\": 1}, \"74\": {\"N\": 1}, \"75\": {\"N\": 1}, \"76\": {\"N\": 1}, \"77\": {\"N\": 1}, \"78\": {\"N\": 1}, \"79\": {\"N\": 1}, \"80\": {\"N\": 1}, \"81\": {\"N\": 1}, \"82\": {\"N\": 1}, \"83\": {\"N\": 1}, \"84\": {\"N\": 1}, \"85\": {\"N\": 1}, \"86\": {\"N\": 1}, \"87\": {\"N\": 1}, \"88\": {\"N\": 1}, \"89\": {\"N\": 1}, \"90\": {\"N\": 1}, \"91\": {\"N\": 1}, \"92\": {\"N\": 1}, \"93\": {\"N\": 1}}" energy=-629.5935668945312 free_energy=-629.5935668945312 stress="-0.008028160780668259 -0.002815772546455264 -0.002016356447711587 -0.002815772546455264 -0.014685840345919132 -0.00027659034822136164 -0.002016356447711587 -0.00027659034822136164 -0.006239014212042093" pbc="T T T"
Fe       4.35029551       4.36424964       6.25686608        0       0.57817566       1.57359576      -0.30195269
Fe       0.01848635       8.97078321       0.09171410        1       0.00874852       1.32677352      -0.52786046
H        0.31414510       2.60535771       7.10461490        2      -0.26964104       0.24957728       0.02328265
H        4.59964487       1.87276616      11.44900815        3      -0.51153958      -0.26338768      -0.13154958
H        8.59016542       6.48135084       5.25582492        4       0.14177498       0.04637501      -0.02849933
H        4.06814221       7.21370805       0.90806047        5       0.45574993       0.49506721       0.12680785
H        6.58984361       5.88944590       8.00424629        6       0.23886420      -0.35265934      -0.02193124
H        2.34811018       7.52724989      10.63588566        7      -0.20013283      -0.95512640      -0.39873153
H        2.06319172       3.03071318       4.39477718        8       0.23488401      -0.50595492      -0.08113989
H        6.59586134       1.37357537       1.77083099        9       0.36829895       1.19918919       0.52427733
H        1.73202057       0.47246685       8.15373245       10      -0.16711700      -0.21927212       0.20264234
H        6.10186532       4.08841333      10.37623332       11      -0.64369529       0.46451867      -0.26358840
H        7.13292853       8.70667290       4.18787303       12      -0.13591346       0.07257704      -0.09067469
H        2.69264371       5.06877451       1.93922252       13      -0.37768233       0.07761231       0.01189690
H        5.72075130       1.51415831       7.06160419       14      -1.38316000       0.01002195       0.27196172
H        1.23122418       3.00836716      11.43337666       15       0.02660865      -0.05968614      -0.03340177
H        3.11372203       7.61089028       5.23979520       16       0.63617373       0.06015833      -0.05608305
H        7.46472859       6.11532289       0.88343000       17      -0.02267939      -0.24049304       0.04501880
H        1.27316893       4.30376667       8.66134662       18       0.85921133      -0.50314277      -0.16910011
H        5.69408400       0.25926779       9.85181001       19      -0.13993216       0.12297738      -0.01346907
H        7.49678263       4.83480389       3.71792334       20      -0.40407959       0.67671573       0.04641788
H        3.14250417       8.90763356       2.42913404       21      -1.02108812      -0.95685136      -0.08067287
H        0.73950847       5.95221392       8.29894953       22       0.28795502       0.69820315      -0.48678461
H        5.22597408       7.70794642      10.23778042       23      -0.13092455       0.56336462      -0.40459481
H        7.99119497       3.15225006       4.03787008       24       0.07180934       0.59670252      -0.00706329
H        3.61077082       1.43297999       2.08074639       25       0.12751278      -0.38371366      -0.00530052
H        7.91612999       5.92146149      10.16947420       26       0.67600566      -0.72890723      -0.10130509
H        3.58569552       7.72045209       8.30704819       27      -0.54587269      -0.40221679       0.14650708
H        0.85209637       3.17531559       2.10877230       28      -0.18484297      -0.03715354       0.26271549
H        5.22489977       1.39004036       3.99921961       29       0.25320417       0.38046882      -0.20190172
H        0.80577602       5.54832875      10.68515005       30      -0.21646582      -0.20035367       0.01834976
H        5.22493696       8.12528692       7.81321016       31      -0.12577368      -0.09172831       0.03251614
H        7.99574620       3.54607702       1.60798728       32      -0.99092317      -0.28655031      -0.74870920
H        3.59579757       0.99113479       4.49012148       33      -0.61813384       0.22996135       0.43740857
C        4.96744901       3.87127685       3.29739171       34      -0.38803953       0.38555056       0.91964942
C        0.63629288       0.53283212       3.00941012       35      -0.47140166      -0.21231386      -0.98631644
C        3.80230606       5.07624090       9.17119787       36      -0.57901204       0.04211630       3.94279814
C        8.23672255       8.38772214       9.49545761       37      -0.12281491       0.29232216      -1.29800463
C        8.21896830       3.25275470       7.15809782       38       0.09394467      -2.01798487      -1.59919477
C        3.72853988       1.19353676      11.39781668       39       0.63074678       0.36867073       0.19683260
C        0.67041950       5.82439942       5.25064096       40      -1.85847521      -1.50011802      -2.22166348
C        4.97089387       7.85424176       0.94976331       41      -0.16427685      -0.05768792       0.12257218
C        6.94572278       4.92340999       7.63240018       42      -0.33149418       0.37908396       0.06460854
C        2.61513153       8.49755103      10.95256300       43      -0.42028043       2.56606054       1.94218791
C        1.81795828       3.99304490       4.79334025       44      -0.99922836       0.23992158      -0.31019992
C        6.25243740       0.44554761       1.42777078       45       0.04932509      -1.90832424      -1.08591962
C        0.45697463       4.98906540       8.67867882       46      -1.75323892      -0.82182229       0.60222697
C        4.86525214       8.68398463       9.80471343       47      -0.37824646      -1.02135718       0.78990901
C        8.32350789       4.15713194       3.66283933       48       1.61570287      -2.23955607      -1.27124715
C        3.94737224       0.44812607       2.48006434       49       1.71838272       1.35816026      -0.01724972
C        6.91080162       3.51908291      10.76497246       50       1.80358255      -0.81187779       0.40286756
C        2.59306421       1.03446254       7.82208455       51       0.52409738      -0.31606203      -0.40876418
C        1.81073423       5.63755807       1.60267181       52       1.25344300      -1.21160483       0.74973941
C        6.27100801       8.14145754       4.53371509       53      -0.29921025      -1.12832165       0.70703316
C        4.60159978       1.56267925       7.26293762       54       3.31205130      -0.83636320      -0.45048368
C        0.15881489       2.93703114      11.26060243       55       2.13824129       0.29287398       0.41429606
C        4.20733113       7.58403181       5.07843367       56       1.07638478      -1.23149085       0.58090138
C        8.53275141       6.12869941       1.07029631       57       2.16781139       1.06082726      -0.23456365
C        8.74485382       5.14863815      10.09973418       58      -0.11216617       1.13407767       0.37791619
C        4.35449125       8.47187802       8.40230441       59       1.92957354      -0.47486502      -0.11778793
C        0.02330868       3.89914804       2.18054606       60       0.92965251       1.18222237       1.79213595
C        4.43156220       0.65552302       3.90152558       61       0.20960292      -0.63869756      -0.03086704
S        5.17478037       3.93884099       1.68493294       62       0.10646733      -0.24014381       0.45183152
S        0.86348642       0.61544823       4.64233381       63       0.10057191       0.10311767      -1.05311251
S        3.52052390       5.13829198      10.79825186       64       0.03880241       0.20304555      -0.78846931
S        7.99591638       8.41875875       7.85462799       65       0.04781359      -0.21691689       1.12179518
N        4.73880042       3.88548314       4.48127915       66       0.62105775      -0.51973957      -2.36364698
N        0.39406209       0.47242476       1.82160471       67       0.65085161       0.80389404       2.94520664
N        3.95844322       4.98623149       8.03140340       68       0.35278070       0.38807654      -2.34784937
N        8.40209781       8.38010939      10.66759052       69      -0.13418470      -0.35851735      -0.64622307
N        6.26042680       4.10541607       6.85718620       70       0.60344493      -0.00493590      -0.25556511
N        1.90712021       0.15033486      11.83788114       71       0.66865408      -1.24608028      -1.57301784
N        2.49137491       4.71992686       5.64486150       72      -0.24629766       1.62421656       0.07607052
N        6.92442692       8.73051302       0.65743633       73      -0.48935825      -0.43162394      -0.11882345
N        7.07292338       3.05277394       6.49394755       74       0.35310519      -0.11081100       0.66880202
N        2.60219426       1.28662502      12.09489410       75       0.68417364      -0.14103657      -0.39780498
N        1.76514328       5.91672095       5.87825075       76       2.24992824      -0.41167203       1.60433435
N        6.11393238       7.63203048       0.34945951       77       0.56060135       0.58616173      -0.04083745
N        8.19378984       4.39298864       7.81551827       78       0.36836186       2.13649654       1.35074580
N        3.78940327       0.00658729      10.70631792       79      -0.07795745       0.26283696      -0.09199262
N        0.64643474       4.61295427       4.49998213       80      -1.07109165       1.32077527       0.53422636
N        5.03769208       9.05243992       1.61728541       81      -2.33451080       0.09504589       0.87981534
N        8.18247474       1.97766547      11.64601899       82      -1.47708035      -2.15068150       0.72436517
N        3.85714581       2.57126967       6.91868039       83      -1.72876704      -0.94575143       0.21355167
N        0.55593586       7.16536178       0.74371710       84       0.00384516      -1.57009017       0.45631212
N        5.04949445       6.58440779       5.45656410       85      -1.11258781       0.07944843       0.03359633
N        6.87038431       2.31667085      11.30391754       86      -0.06200281      -0.02706462       0.13280071
N        2.53928519       2.21941407       7.27716211       87       0.07267854       0.47611654       0.05702271
N        1.87118403       6.83356889       1.12997483       88      -0.93375140       1.41527224      -0.93784660
N        6.32862725       6.92121600       5.09650639       89      -0.26750335       0.91236186      -0.35840356
N        8.24750149       3.93030374      10.73792760       90      -1.75057030       1.68441057      -1.37048292
N        3.89938297       0.53497664       7.78950766       91      -1.97351241       1.32979250       0.10148466
N        0.55394135       5.15784314       1.60187361       92      -2.06722403      -1.08322394       0.06532460
N        4.96962344       8.57184762       4.53370197       93      -0.20677572       0.50711703      -0.64211190
94
Lattice="8.79139967 0.0 0.0 0.0016682973464376906 9.136723947690703 0.0 0.0012904207300469526 -0.08947916651225281 12.375129924538921" Properties=species:S:1:pos:R:3:spacegroup_kinds:I:1:forces:R:3 spacegroup="P 1" unit_cell=conventional occupancy="_JSON {\"0\": {\"Fe\": 1}, \"1\": {\"Fe\": 1}, \"2\": {\"H\": 1}, \"3\": {\"H\": 1}, \"4\": {\"H\": 1}, \"5\": {\"H\": 1}, \"6\": {\"H\": 1}, \"7\": {\"H\": 1}, \"8\": {\"H\": 1}, \"9\": {\"H\": 1}, \"10\": {\"H\": 1}, \"11\": {\"H\": 1}, \"12\": {\"H\": 1}, \"13\": {\"H\": 1}, \"14\": {\"H\": 1}, \"15\": {\"H\": 1}, \"16\": {\"H\": 1}, \"17\": {\"H\": 1}, \"18\": {\"H\": 1}, \"19\": {\"H\": 1}, \"20\": {\"H\": 1}, \"21\": {\"H\": 1}, \"22\": {\"H\": 1}, \"23\": {\"H\": 1}, \"24\": {\"H\": 1}, \"25\": {\"H\": 1}, \"26\": {\"H\": 1}, \"27\": {\"H\": 1}, \"28\": {\"H\": 1}, \"29\": {\"H\": 1}, \"30\": {\"H\": 1}, \"31\": {\"H\": 1}, \"32\": {\"H\": 1}, \"33\": {\"H\": 1}, \"34\": {\"C\": 1}, \"35\": {\"C\": 1}, \"36\": {\"C\": 1}, \"37\": {\"C\": 1}, \"38\": {\"C\": 1}, \"39\": {\"C\": 1}, \"40\": {\"C\": 1}, \"41\": {\"C\": 1}, \"42\": {\"C\": 1}, \"43\": {\"C\": 1}, \"44\": {\"C\": 1}, \"45\": {\"C\": 1}, \"46\": {\"C\": 1}, \"47\": {\"C\": 1}, \"48\": {\"C\": 1}, \"49\": {\"C\": 1}, \"50\": {\"C\": 1}, \"51\": {\"C\": 1}, \"52\": {\"C\": 1}, \"53\": {\"C\": 1}, \"54\": {\"C\": 1}, \"55\": {\"C\": 1}, \"56\": {\"C\": 1}, \"57\": {\"C\": 1}, \"58\": {\"C\": 1}, \"59\": {\"C\": 1}, \"60\": {\"C\": 1}, \"61\": {\"C\": 1}, \"62\": {\"S\": 1}, \"63\": {\"S\": 1}, \"64\": {\"S\": 1}, \"65\": {\"S\": 1}, \"66\": {\"N\": 1}, \"67\": {\"N\": 1}, \"68\": {\"N\": 1}, \"69\": {\"N\": 1}, \"70\": {\"N\": 1}, \"71\": {\"N\": 1}, \"72\": {\"N\": 1}, \"73\": {\"N\": 1}, \"74\": {\"N\": 1}, \"75\": {\"N\": 1}, \"76\": {\"N\": 1}, \"77\": {\"N\": 1}, \"78\": {\"N\": 1}, \"79\": {\"N\": 1}, \"80\": {\"N\": 1}, \"81\": {\"N\": 1}, \"82\": {\"N\": 1}, \"83\": {\"N\": 1}, \"84\": {\"N\": 1}, \"85\": {\"N\": 1}, \"86\": {\"N\": 1}, \"87\": {\"N\": 1}, \"88\": {\"N\": 1}, \"89\": {\"N\": 1}, \"90\": {\"N\": 1}, \"91\": {\"N\": 1}, \"92\": {\"N\": 1}, \"93\": {\"N\": 1}}" energy=-628.71923828125 free_energy=-628.71923828125 stress="-1.083839379134588e-05 -0.0010495387250557542 -0.001379121677018702 -0.0010495387250557542 -0.01675282046198845 0.003785551991313696 -0.001379121677018702 0.003785551991313696 -0.0020375605672597885" pbc="T T T"
Fe       4.36691162       4.38537062       6.24476313        0       0.37499836       1.32063150       0.04497240
Fe      -0.00576839       8.96781252       0.10709025        1       0.31478232       1.21212626      -0.62437379
H        0.30418024       2.62443518       7.08046052        2       0.21236348      -0.05868956       0.08906215
H        4.60484675       1.88119435      11.47644158        3      -0.49791917      -0.35504568      -0.17396571
H        8.61725005       6.46974550       5.24186793        4      -1.80116212       1.63123119       0.04605674
H        4.06237864       7.18467080       0.92973661        5       0.41900608       0.68040371      -0.00518876
H        6.60931988       5.89270785       8.01225285        6      -0.17109485       0.23870099       0.15134756
H        2.33490255       7.52539021      10.64604859        7      -0.17961758      -0.63580406      -0.36580169
H        2.04294835       3.05004246       4.40633361        8       0.37857044      -0.79482692      -0.28124315
H        6.58158507       1.39857256       1.79445201        9      -0.04678349      -0.39652497      -0.06319754
H        1.73045422       0.44608134       8.13752726       10       0.15978290       0.24802518       0.10801096
H        6.10972044       4.07094123      10.37053416       11      -0.16412809       0.18778606       0.00681338
H        7.12767567       8.70635552       4.16065250       12      -0.90675437      -0.37014216       0.19897275
H        2.69187532       5.09530840       1.93227117       13       0.55692512      -0.49639919       0.42432332
H        5.70373406       1.49810577       7.07438046       14      -0.15145759      -0.10421619       0.02251157
H        1.22789910       3.00685939      11.45031515       15      -0.52535927      -0.06322157      -0.22795616
H        3.12392696       7.58760682       5.26817600       16       0.68566221       0.19755130      -0.04395702
H        7.44556124       6.12472804       0.86767022       17       0.00444397      -0.40124211       0.11945625
H        1.24630845       4.28354176       8.68176247       18       1.36045229      -0.71322930      -0.16678083
H        5.70616571       0.24609974       9.87064803       19      -0.03887929       0.18253188      -0.05503358
H        7.48064387       4.86368090       3.73435279       20       0.86531889      -0.55853456      -0.11314461
H        3.13202783       8.88562295       2.43338143       21      -1.23019612      -1.04459310      -0.14589967
H        0.72270649       5.94695936       8.29900813       22       0.49499261       0.75058138      -0.44995201
H        5.24689807       7.73185104      10.22338464       23       0.23727778      -0.70084715       0.00271620
H        7.96927872       3.16095001       4.01924328       24       0.09217469      -0.10229972       0.27760091
H        3.63009332       1.45716726       2.06958153       25       0.02550469      -1.18112803       0.49210247
H        7.89036499       5.91834448      10.19814134       26       0.94970506      -0.72095215      -0.13581015
H        3.55946648       7.69705915       8.29174548       27       0.83774006       0.89263606       0.26778334
H        0.84256166       3.16937667       2.13525274       28      -0.15626660       0.21230219       0.00909634
H        5.25450647       1.36409270       3.97981427       29       0.11188658       0.27937043      -0.22968008
H        0.83051806       5.55093817      10.70496276       30      -0.67305803      -0.26154450      -0.22661595
H        5.21686433       8.15259632       7.83457691       31       0.93102276      -0.44224072      -0.93888819
H        8.00911834       3.54884427       1.60493284       32      -1.00594223      -0.15357962      -0.84407723
H        3.61986044       0.96894847       4.50928797       33      -0.44776088       0.38962281       0.16808537
C        4.94214323       3.87133417       3.31133348       34       0.07807866       0.43774682      -1.09792674
C        0.63237500       0.55269239       3.03295211       35      -0.96585864      -0.38393107      -3.43966341
C        3.77662170       5.06114214       9.18538052       36      -0.03146763      -0.11849084       0.98843110
C        8.21834188       8.37367842       9.49904472       37      -0.29129726       0.32276377      -2.86894369
C        8.22787241       3.26552383       7.17103625       38      -0.58013433      -1.69698346      -2.13019657
C        3.74166753       1.19219939      11.40662381       39      -0.03127870      -0.32988989       0.23082684
C        0.64529464       5.85142884       5.26848576       40       1.57320094      -3.91320562      -2.01362514
C        4.94298548       7.85936317       0.92617721       41       0.46854264       0.16105288       0.09352635
C        6.91690725       4.93794111       7.62798520       42       1.07507348      -1.04892337      -0.00078920
C        2.59282374       8.51997401      10.92276816       43      -0.00189651       2.04371452       2.04869556
C        1.84425279       4.02012526       4.79011592       44      -1.86379504       0.29261529      -0.23938340
C        6.25365600       0.41677711       1.43575353       45       0.22012225       0.62071741      -0.29233095
C        0.45839692       4.98219785       8.68074539       46      -2.25145435      -0.25053275       1.36792040
C        4.89023828       8.66078379       9.80204737       47      -1.00546706       0.44256410       0.10813537
C        8.33666314       4.12990298       3.66438940       48       0.42029220       0.52701271      -1.45756328
C        3.92731116       0.42704961       2.48550276       49       2.37064934       2.59547210      -0.28909338
C        6.92983631       3.50539851      10.79103268       50       0.25150493       0.67397732      -0.72070384
C        2.58603967       1.06314720       7.83848663       51       0.38188088      -1.21948290      -0.31949615
C        1.83864510       5.65975441       1.62905185       52      -0.61140698      -1.40176833       0.26716447
C        6.24249170       8.13183325       4.52941688       53       1.23763132      -0.41049373       0.12501223
C        4.62750024       1.53645023       7.25479324       54       0.97330707       0.16748691      -0.19165313
C        0.14151996       2.94948831      11.23571853       55       3.25856972      -1.77677047       1.92975903
C        4.21999991       7.61163611       5.10003021       56       0.06181285      -2.33874941       1.33217847
C        8.51242938       6.10959610       1.07111181       57       3.07114506       1.44063950      -0.18047825
C        8.73890299       5.15677016      10.12702653       58       0.44028825       1.61252642      -0.17444211
C        4.37695137       8.49755748       8.38632123       59      -0.56451702      -1.91755271       0.93820465
C        0.03474131       3.92838226       2.16263708       60       1.05665922       0.27150148       2.55734873
C        4.45413349       0.62614217       3.90618833       61      -0.89770252       0.78600037      -0.44505137
S        5.17222266       3.94693537       1.67606345       62      -0.01786833      -0.32336950       1.02897632
S        0.86860592       0.60212579       4.63667749       63       0.17563215       0.14572415      -0.44400877
S        3.53955771       5.13702158      10.82769923       64       0.00019533       0.13251200      -1.17654538
S        8.00950160       8.41934615       7.86237987       65      -0.01710409      -0.23743789       0.79891104
N        4.76813052       3.91354769       4.48493335       66       0.29356533      -0.56438100      -1.05103922
N        0.36980366       0.49834386       1.81652529       67       1.06868589       0.87920982       4.77676964
N        3.94347909       4.99508855       8.01140077       68      -0.13469808       0.61951566       0.97284681
N        8.38967173       8.37420554      10.64978239       69       0.17609751      -0.33348808       1.36492324
N        6.23327981       4.09954072       6.85860206       70       1.91120768       0.33627677       0.02862217
N        1.89494883       0.15651973      11.84768049       71       1.02504075      -1.34963942      -2.11825752
N        2.51563209       4.70145183       5.67159235       72      -1.27630961       2.57110262      -0.24515021
N        6.91613521       8.73611987       0.64829912       73      -0.54673040      -1.20016181      -0.38102376
N        7.09366234       3.07206191       6.47285759       74       0.05968183      -0.17498575       1.05940676
N        2.59752838       1.28155374      12.11872262       75       1.61792004      -0.24937195      -1.06182289
N        1.75751304       5.91606130       5.89521493       76       1.93986905      -0.15690714       1.64213204
N        6.09192915       7.63007101       0.32036210       77       0.27505934       0.83656532       0.28740376
N        8.21695285       4.40123714       7.82308603       78      -1.65929842       2.35111141       0.90497708
N        3.81159007      -0.01708275      10.68582663       79      -1.36497414       1.41689050       1.20367086
N        0.64640700       4.63177634       4.51705554       80      -0.84574127       0.73683548       0.28795260
N        5.01688686       9.07764105       1.58804510       81      -2.53806281      -1.15505779       0.93114215
N        8.17080403       1.95235879      11.64760313       82      -0.56674433      -0.62654841      -0.20288667
N        3.86222187       2.54935439       6.92887602       83      -1.01170754      -0.22023140      -0.40546221
N        0.54609098       7.14039351       0.74715712       84      -0.03388537      -0.85963279       0.07676126
N        5.06841147       6.60222555       5.48101256       85      -1.91391599      -0.10703338      -0.03246962
N        6.86112451       2.30278132      11.27889637       86       0.28944218      -0.43231210       0.63795805
N        2.54357892       2.23020615       7.26461689       87       0.37100282       0.42366523       0.24158332
N        1.86360929       6.82311185       1.11774308       88      -0.81265283       2.50679874      -1.14297509
N        6.32620012       6.90200094       5.07816936       89      -0.26537302       1.75366473      -0.46147209
N        8.25874053       3.95406750      10.75652241       90      -2.66044188       0.90295821      -1.17765534
N        3.89494957       0.55527606       7.80207353       91      -1.69401217       0.75130177       0.29106012
N        0.57101629       5.17765245       1.60675529       92      -2.31222296      -1.92249632       0.42957217
N        4.94164711       8.59588336       4.55556150       93       1.60962701      -0.90853012      -0.52710992
94
Lattice="8.79139967 0.0 0.0 0.0016682973464376906 9.136723947690703 0.0 0.0012904207300469526 -0.08947916651225281 12.375129924538921" Properties=species:S:1:pos:R:3:spacegroup_kinds:I:1:forces:R:3 spacegroup="P 1" unit_cell=conventional occupancy="_JSON {\"0\": {\"Fe\": 1}, \"1\": {\"Fe\": 1}, \"2\": {\"H\": 1}, \"3\": {\"H\": 1}, \"4\": {\"H\": 1}, \"5\": {\"H\": 1}, \"6\": {\"H\": 1}, \"7\": {\"H\": 1}, \"8\": {\"H\": 1}, \"9\": {\"H\": 1}, \"10\": {\"H\": 1}, \"11\": {\"H\": 1}, \"12\": {\"H\": 1}, \"13\": {\"H\": 1}, \"14\": {\"H\": 1}, \"15\": {\"H\": 1}, \"16\": {\"H\": 1}, \"17\": {\"H\": 1}, \"18\": {\"H\": 1}, \"19\": {\"H\": 1}, \"20\": {\"H\": 1}, \"21\": {\"H\": 1}, \"22\": {\"H\": 1}, \"23\": {\"H\": 1}, \"24\": {\"H\": 1}, \"25\": {\"H\": 1}, \"26\": {\"H\": 1}, \"27\": {\"H\": 1}, \"28\": {\"H\": 1}, \"29\": {\"H\": 1}, \"30\": {\"H\": 1}, \"31\": {\"H\": 1}, \"32\": {\"H\": 1}, \"33\": {\"H\": 1}, \"34\": {\"C\": 1}, \"35\": {\"C\": 1}, \"36\": {\"C\": 1}, \"37\": {\"C\": 1}, \"38\": {\"C\": 1}, \"39\": {\"C\": 1}, \"40\": {\"C\": 1}, \"41\": {\"C\": 1}, \"42\": {\"C\": 1}, \"43\": {\"C\": 1}, \"44\": {\"C\": 1}, \"45\": {\"C\": 1}, \"46\": {\"C\": 1}, \"47\": {\"C\": 1}, \"48\": {\"C\": 1}, \"49\": {\"C\": 1}, \"50\": {\"C\": 1}, \"51\": {\"C\": 1}, \"52\": {\"C\": 1}, \"53\": {\"C\": 1}, \"54\": {\"C\": 1}, \"55\": {\"C\": 1}, \"56\": {\"C\": 1}, \"57\": {\"C\": 1}, \"58\": {\"C\": 1}, \"59\": {\"C\": 1}, \"60\": {\"C\": 1}, \"61\": {\"C\": 1}, \"62\": {\"S\": 1}, \"63\": {\"S\": 1}, \"64\": {\"S\": 1}, \"65\": {\"S\": 1}, \"66\": {\"N\": 1}, \"67\": {\"N\": 1}, \"68\": {\"N\": 1}, \"69\": {\"N\": 1}, \"70\": {\"N\": 1}, \"71\": {\"N\": 1}, \"72\": {\"N\": 1}, \"73\": {\"N\": 1}, \"74\": {\"N\": 1}, \"75\": {\"N\": 1}, \"76\": {\"N\": 1}, \"77\": {\"N\": 1}, \"78\": {\"N\": 1}, \"79\": {\"N\": 1}, \"80\": {\"N\": 1}, \"81\": {\"N\": 1}, \"82\": {\"N\": 1}, \"83\": {\"N\": 1}, \"84\": {\"N\": 1}, \"85\": {\"N\": 1}, \"86\": {\"N\": 1}, \"87\": {\"N\": 1}, \"88\": {\"N\": 1}, \"89\": {\"N\": 1}, \"90\": {\"N\": 1}, \"91\": {\"N\": 1}, \"92\": {\"N\": 1}, \"93\": {\"N\": 1}}" energy=-627.3663330078125 free_energy=-627.3663330078125 stress="0.002364810323342681 0.002129269065335393 -0.00023540215624962002 0.002129269065335393 -0.017841042950749397 0.004514132160693407 -0.00023540215624962002 0.004514132160693407 0.0017655078554525971" pbc="T T T"
Fe       4.35785839       4.38656496       6.22256390        0       0.44249129       1.17818534       0.26028472
Fe       0.01664829       8.95208408       0.12950374        1       0.47562069       1.14336157      -0.81427395
H        0.32039970       2.60104780       7.08410056        2      -0.14708312       0.38713777       0.20114723
H        4.61253203       1.89108694      11.46438943        3      -0.31329203      -0.11505170      -0.03281016
H        8.61145291       6.48137390       5.24402257        4      -2.11777139       1.79889369      -0.02634736
H        4.05239199       7.17747173       0.95934321        5       0.78385592       0.73372924      -0.04782128
H        6.62322042       5.88327494       8.00414263        6      -0.29214990       0.54751980       0.29797998
H        2.31349099       7.55126029      10.64191843        7      -0.45826492      -2.12338805      -0.83784515
H        2.05877303       3.06056397       4.40407491        8       0.61579847      -1.13494861      -0.26581141
H        6.57649517       1.40712480       1.80477273        9       0.16358528      -0.01481208      -0.08971670
H        1.74619379       0.45400806       8.16048400       10       0.43768817       0.32222581       0.06712038