116
Lattice="7.45594744 0.0 0.0 0.0001430859238811871 11.344661379097655 0.0 -0.0001190351022274169 0.0002583049341035847 13.766519257062045" Properties=species:S:1:pos:R:3:spacegroup_kinds:I:1:forces:R:3 spacegroup="P 1" unit_cell=conventional occupancy="_JSON {\"0\": {\"Cu\": 1}, \"1\": {\"Cu\": 1}, \"2\": {\"Cu\": 1}, \"3\": {\"Cu\": 1}, \"4\": {\"H\": 1}, \"5\": {\"H\": 1}, \"6\": {\"H\": 1}, \"7\": {\"H\": 1}, \"8\": {\"H\": 1}, \"9\": {\"H\": 1}, \"10\": {\"H\": 1}, \"11\": {\"H\": 1}, \"12\": {\"H\": 1}, \"13\": {\"H\": 1}, \"14\": {\"H\": 1}, \"15\": {\"H\": 1}, \"16\": {\"H\": 1}, \"17\": {\"H\": 1}, \"18\": {\"H\": 1}, \"19\": {\"H\": 1}, \"20\": {\"H\": 1}, \"21\": {\"H\": 1}, \"22\": {\"H\": 1}, \"23\": {\"H\": 1}, \"24\": {\"H\": 1}, \"25\": {\"H\": 1}, \"26\": {\"H\": 1}, \"27\": {\"H\": 1}, \"28\": {\"H\": 1}, \"29\": {\"H\": 1}, \"30\": {\"H\": 1}, \"31\": {\"H\": 1}, \"32\": {\"H\": 1}, \"33\": {\"H\": 1}, \"34\": {\"H\": 1}, \"35\": {\"H\": 1}, \"36\": {\"H\": 1}, \"37\": {\"H\": 1}, \"38\": {\"H\": 1}, \"39\": {\"H\": 1}, \"40\": {\"H\": 1}, \"41\": {\"H\": 1}, \"42\": {\"H\": 1}, \"43\": {\"H\": 1}, \"44\": {\"C\": 1}, \"45\": {\"C\": 1}, \"46\": {\"C\": 1}, \"47\": {\"C\": 1}, \"48\": {\"C\": 1}, \"49\": {\"C\": 1}, \"50\": {\"C\": 1}, \"51\": {\"C\": 1}, \"52\": {\"C\": 1}, \"53\": {\"C\": 1}, \"54\": {\"C\": 1}, \"55\": {\"C\": 1}, \"56\": {\"C\": 1}, \"57\": {\"C\": 1}, \"58\": {\"C\": 1}, \"59\": {\"C\": 1}, \"60\": {\"C\": 1}, \"61\": {\"C\": 1}, \"62\": {\"C\": 1}, \"63\": {\"C\": 1}, \"64\": {\"C\": 1}, \"65\": {\"C\": 1}, \"66\": {\"C\": 1}, \"67\": {\"C\": 1}, \"68\": {\"C\": 1}, \"69\": {\"C\": 1}, \"70\": {\"C\": 1}, \"71\": {\"C\": 1}, \"72\": {\"C\": 1}, \"73\": {\"C\": 1}, \"74\": {\"C\": 1}, \"75\": {\"C\": 1}, \"76\": {\"C\": 1}, \"77\": {\"C\": 1}, \"78\": {\"C\": 1}, \"79\": {\"C\": 1}, \"80\": {\"C\": 1}, \"81\": {\"C\": 1}, \"82\": {\"C\": 1}, \"83\": {\"C\": 1}, \"84\": {\"N\": 1}, \"85\": {\"N\": 1}, \"86\": {\"N\": 1}, \"87\": {\"N\": 1}, \"88\": {\"N\": 1}, \"89\": {\"N\": 1}, \"90\": {\"N\": 1}, \"91\": {\"N\": 1}, \"92\": {\"N\": 1}, \"93\": {\"N\": 1}, \"94\": {\"N\": 1}, \"95\": {\"N\": 1}, \"96\": {\"N\": 1}, \"97\": {\"N\": 1}, \"98\": {\"N\": 1}, \"99\": {\"N\": 1}, \"100\": {\"O\": 1}, \"101\": {\"O\": 1}, \"102\": {\"O\": 1}, \"103\": {\"O\": 1}, \"104\": {\"O\": 1}, \"105\": {\"O\": 1}, \"106\": {\"O\": 1}, \"107\": {\"O\": 1}, \"108\": {\"O\": 1}, \"109\": {\"O\": 1}, \"110\": {\"O\": 1}, \"111\": {\"O\": 1}, \"112\": {\"O\": 1}, \"113\": {\"O\": 1}, \"114\": {\"O\": 1}, \"115\": {\"O\": 1}}" energy=-766.8875732421875 free_energy=-766.8875732421875 stress="-0.03038133680820465 0.0007680672570131719 -0.003234090982005 0.0007680672570131719 -0.02720656245946884 -0.0011534540681168437 -0.003234090982005 -0.0011534540681168437 -0.020937582477927208" pbc="T T T"
Cu      -0.00003207       5.67256582       6.88329607        0       0.01883385      -0.31542051       0.22638790
Cu       7.45573382      11.34428759       0.00012005        1       0.15142828      -0.45372033       0.11261801
Cu       3.72773201       5.67238080       0.00020989        2       0.15312421      -0.02330296       0.06615699
Cu       3.72763208      11.34516217       6.88335262        3      -0.04358409      -0.06416737       0.24433385
H        5.30298562       7.95608661      10.10697953        4      -0.24326947       0.21806085      -0.24577042
H        2.11899642       9.05289307       3.17791852        5       0.55158395      -0.58144486      -0.24765918
H        1.60808981       3.34340065      10.58816807        6      -0.64740139      -0.37252536       0.44392109
H        5.84739337       2.27905190       3.67047524        7       0.32600290       0.30432707       0.52817243
H        2.14731541       3.38504309       3.66977998        8       0.42355829      -0.63321334       0.46275747
H        5.31112800       2.27161682      10.59808084        9      -0.19002886       0.05084704       0.13686576
H        5.84627280       7.94763163       3.17214216       10       0.11713387       0.42584020       0.15880789
H        1.57925806       9.01730418      10.10284344       11      -0.65995204      -0.53645229      -0.49161455
H        5.51980605       6.35086292      10.86878110       12       0.05396825       0.27164140      -0.22187862
H        1.92928582      10.61852566       3.93608574       13       0.18293230       0.33712703       0.21204722
H        1.76185935       4.93853886       9.82890554       14      -0.10687457       0.29441035       0.03296565
H        5.65910237       0.73462053       2.94115211       15       0.75884145      -1.55854440      -0.44114351
H        1.92923294       4.93895739       2.90756633       16      -0.20920973       0.06183959       0.46085650
H        5.52178159       0.69995111       9.83270548       17      -0.75518483      -1.18557131      -0.35886618
H        5.65739695       6.40702514       3.94420123       18       0.26989943      -0.85287738       0.21538101
H        1.76493543      10.60912682      10.82689137       19      -0.37623432       0.61996037       0.22547272
H        6.12760425       9.92645429      11.24194755       20      -0.29178685       0.23041375      -0.41663432
H        1.30490145       7.10866862       4.35524381       21       0.70854121      -1.19971550      -0.97770989
H        2.40632403       1.43616378       9.46693793       22      -0.46641171      -0.71677637       0.64946675
H        5.04221781       4.23638317       2.58335043       23      -0.03877950      -0.02483782       0.16777718
H        1.31615626       1.42235582       2.58075225       24       0.33790675      -0.54569197       0.49600410
H        6.14031852       4.23558816       9.45618848       25      -0.58246124       0.72487223       0.78245902
H        5.03157842       9.91268052       4.35831296       26       0.07266551      -0.04577631      -0.25911406
H        2.39208304       7.08997745      11.21642604       27      -0.01478249      -0.05261084      -0.01887904
H        0.88806198       8.30479857       0.60994094       28       0.61788988      -0.13529675       1.13175011
H        6.53992944       8.72064023       7.53549522       29      -0.27679828      -0.02669085       0.53725082
H        4.61356607       3.08673509       6.25827903       30      -0.32121155       0.06699309       0.33256808
H        2.79432306       2.61395198      13.16920861       31      -0.03715334      -0.32533675      -0.15143967
H        6.55539610       3.04867432      13.16923216       32      -0.38778865       0.10880101      -0.69115829
H        0.88490121       2.62874014       6.28586635       33       0.05274145      -0.45113036      -0.20268819
H        2.84009210       8.28238895       7.48398491       34      -0.69596839      -0.23782058       1.12825847
H        4.62596174       8.76160374       0.64604742       35       0.04881145      -0.08117452       0.21733601
H        0.08693093       6.27842941      12.67606443       36       0.58244991      -2.51320028       0.14571682
H        7.31549138      10.73784442       5.79958465       37       0.04232329      -0.11782339       0.02591366
H        3.81321809       5.07033682       8.00462450       38       0.03934284      -0.04956943      -0.00926434
H        3.62978261       0.60538272       1.12584827       39      -0.40354615      -1.91336107      -0.05358366
H        7.31350199       5.06596152       1.12298639       40      -0.18422922       0.13197587      -0.13149132
H        0.10804620       0.60703327       8.00135740       41       0.20681772      -0.87783700      -0.02881937
H        3.58503637       6.26509119       5.81296415       42      -0.13162477      -0.68998003       0.08488870
H        3.81315080      10.74260020      12.64574240       43       0.14062594      -0.01926157       0.21250510
C        6.97363897       6.81399155       9.39953378       44       0.68991649       0.90163028       0.87547773
C        0.46522342      10.14953341       2.52994209       45       0.76000673       0.43301949      -1.02901232
C        3.25112313       4.47977133      11.29607376       46      -0.30490366       0.34321186      -0.47312394
C        4.16953588       1.13603493       4.40785038       47       1.22557306       1.07577991      -2.25351954
C        0.43898530       4.48031780       4.41277955       48       3.15879178       0.35142356      -0.05247223
C        6.97059422       1.14858266      11.27034635       49       0.95271486       0.08187559       0.49906284
C        4.15826175       6.86526266       2.47650407       50       3.62235260      -0.58059090       0.75984585
C        3.24215919      10.15219714       9.40514357       51       0.75708652      -0.00870712       0.70040023
C        6.04475588       7.27542681      10.52365852       52      -0.60399991      -1.39267635      -0.19270377
C        1.39867002       9.72027560       3.61791112       53      -0.19484249       0.08362735       0.68000412
C        2.30350039       4.05280734      10.17311892       54       0.36035398       0.11427965       0.09748545
C        5.12209445       1.57083390       3.28849270       55      -0.86090338       1.12043691       0.04594671
C        1.38783356       4.04701563       3.29525529       56       0.01473182       1.27064776      -0.70079410
C        6.03205444       1.56767904      10.16852672       57       0.39508146       0.82453239       0.38876545
C        5.11496263       7.28474471       3.64154609       58      -0.39504015      -0.01571453      -1.13650560
C        2.28312515       9.71966589      10.50145933       59       1.06025040      -0.19053201       0.56878197
C        6.63278001       9.22951431      11.88158305       60      -0.72510546      -0.76675826      -1.50093269
C        0.77621796       7.73992419       4.99763199       61       1.12397194       1.52016234      -1.69689083
C        2.91729358       2.10817768       8.82751751       62       0.39478749      -1.75896990      -0.83805794
C        4.49747404       3.54751476       1.94442756       63       0.54136968       1.07332921       0.00688085
C        0.77393398       2.07095840       1.93336607       64       0.54326695       1.90627193       0.52747536
C        6.63061709       3.54714866       8.82676130       65       0.86854780      -0.22129053      -1.10968006
C        4.49860475       9.21822061       4.99787607       66       0.83202517       0.98975086      -1.23407793
C        2.90246921       7.78060337      11.88145363       67      -0.19473861      -1.87927330      -0.62916774
C        0.27921904       8.31974563      13.52100983       68      -0.10159515      -0.55263567      -1.11803591
C        7.11925521       8.66127537       6.64277634       69       1.15750790       0.32979599      -1.36132503
C        4.00754026       3.01036209       7.17105584       70       0.73306501      -0.35454309      -0.68075329
C        3.39743195       2.62909651       0.29722327       71       0.60135674       0.91057479       0.25582421
C        7.12399910       2.99245890       0.29741817       72       0.44297236       0.12748605       0.28324044
C        0.28272132       2.62937148       7.18067855       73       0.67057627       0.67090559      -0.83412147
C        3.41636651       8.32012259       6.60757626       74       0.02757311       0.57641244       0.27065811
C        4.02072925       8.66274508      13.52551498       75       0.20565066       0.63219923      -0.54247230
C        7.38720070       7.28846638      12.68848666       76      -1.14572895       2.83290291      -0.63605493
C        0.09275260       9.67336754       5.80387001       77      -0.68238044       0.13681346       0.28398591
C        3.62482516       4.00099284       8.01756706       78      -0.00102043       0.90724218       0.06628001
C        3.82843946       1.62241928       1.13747229       79      -0.71620703       1.75408030      -0.94444793
C        0.05775484       4.00296262       1.13525318       80      -0.55143768       0.96447271      -0.49404234
C        7.35426449       1.64733383       8.01804103       81       0.05133045      -1.08563340       0.22470208
C        3.82562652       7.30342637       5.80459616       82      -0.67740083      -0.15590933       0.33253992
C        3.63015717       9.67322253      12.67628838       83       0.09812269       0.45736495       0.15052161
N        6.65121765       7.88994532      11.64745137       84       0.89503670       0.36241844       1.03449678
N        0.77076163       9.07378166       4.76512755       85       0.06569794       0.54887438      -0.13079691
N        2.92329099       3.40287240       9.04994611       86       0.60361862       1.28308809      -0.48411763
N        4.48142412       2.21692365       2.16867379       87       0.15475351       0.54343933      -0.04902983
N        0.75188879       3.45762531       2.15115198       88       0.24363458      -2.86869860       0.38081270
N        6.66479630       2.21494952       9.05213287       89      -0.03581835       0.78107274      -0.27956867
N        4.47426186       7.88835296       4.77138706       90       0.77934778       0.78300232      -0.63034582
N        2.92728747       9.07911145      11.64985285       91      -0.06019416       1.20553803      -0.09180450
N        7.29996664       9.50616870      12.95952132       92       0.64488143       0.79570103       1.89533234
N        0.16352226       7.46691820       6.08622626       93      -2.01028061      -0.43873268       3.00214291
N        3.59998591       1.78238603       7.69199844       94      -0.63994062       1.05536187       0.62521148
N        3.87405104       3.88904234       0.79840007       95      -0.37914056      -2.54124308       0.47918010
N        0.16127623       1.79574114       0.80181553       96      -0.62211466       0.03506660      -0.41134554
N        7.31976465       3.83078087       7.68487282       97      -1.04812992       0.51027966       1.08664739
N        3.84572906       9.55226571       6.09684350       98      -0.23072124      -1.35394347       0.39024249
N        3.60823587       7.45830768      12.97352205       99      -0.35929400       0.44571549       0.43766189
O        6.36037085       6.36114328       8.38694196      100      -0.74210954      -0.61194843      -1.20877981
O        1.08990203      10.60800684       1.48081858      101       0.20591938       0.04090187      -0.08265615
O        2.60512745       4.93235461      12.30604251      102      -0.40312758       0.23092589       0.83538055
O        4.80695913       0.70978690       5.37747771      103       1.80114841      -1.47949815       3.24775791
O        1.08907347       4.97234959       5.41586327      104       0.44043794       0.08532324       0.66420811
O        6.37260894       0.68294680      12.31051879      105      -0.71350318      -0.16353956       0.24074429
O        4.85901008       6.35402714       1.50590528      106      -0.50160617       0.12272207      -0.51450849
O        2.64338790      10.60368431       8.39295473      107      -1.29694581       0.68915617      -1.84667122
O        0.75561612       6.94058532       9.52568813      108       0.49926168      -0.12783520       0.11740845
O        6.70147355      10.08304762       2.64714860      109      -1.83139348      -0.15641786       0.37485573
O        4.48592355       4.45431019      11.17305720      110       0.87274653      -0.31731364      -0.30824882
O        2.96470001       1.23740591       4.29494462      111      -3.18011379       0.24236378      -0.52087963
O        6.70082763       4.41645717       4.29487698      112      -3.71783710      -0.35479337      -0.46866074
O        0.76026005       1.26909938      11.17663408      113       0.14297357       0.06339134      -0.43286091
O        2.96413875       6.94554125       2.60674794      114      -3.28499317       0.29441530      -0.01538396
O        4.48361003      10.13068401       9.52951649      115       0.78098488      -0.37776709       0.61296332
116
Lattice="7.45594744 0.0 0.0 0.0001430859238811871 11.344661379097655 0.0 -0.0001190351022274169 0.0002583049341035847 13.766519257062045" Properties=species:S:1:pos:R:3:spacegroup_kinds:I:1:forces:R:3 spacegroup="P 1" unit_cell=conventional occupancy="_JSON {\"0\": {\"Cu\": 1}, \"1\": {\"Cu\": 1}, \"2\": {\"Cu\": 1}, \"3\": {\"Cu\": 1}, \"4\": {\"H\": 1}, \"5\": {\"H\": 1}, \"6\": {\"H\": 1}, \"7\": {\"H\": 1}, \"8\": {\"H\": 1}, \"9\": {\"H\": 1}, \"10\": {\"H\": 1}, \"11\": {\"H\": 1}, \"12\": {\"H\": 1}, \"13\": {\"H\": 1}, \"14\": {\"H\": 1}, \"15\": {\"H\": 1}, \"16\": {\"H\": 1}, \"17\": {\"H\": 1}, \"18\": {\"H\": 1}, \"19\": {\"H\": 1}, \"20\": {\"H\": 1}, \"21\": {\"H\": 1}, \"22\": {\"H\": 1}, \"23\": {\"H\": 1}, \"24\": {\"H\": 1}, \"25\": {\"H\": 1}, \"26\": {\"H\": 1}, \"27\": {\"H\": 1}, \"28\": {\"H\": 1}, \"29\": {\"H\": 1}, \"30\": {\"H\": 1}, \"31\": {\"H\": 1}, \"32\": {\"H\": 1}, \"33\": {\"H\": 1}, \"34\": {\"H\": 1}, \"35\": {\"H\": 1}, \"36\": {\"H\": 1}, \"37\": {\"H\": 1}, \"38\": {\"H\": 1}, \"39\": {\"H\": 1}, \"40\": {\"H\": 1}, \"41\": {\"H\": 1}, \"42\": {\"H\": 1}, \"43\": {\"H\": 1}, \"44\": {\"C\": 1}, \"45\": {\"C\": 1}, \"46\": {\"C\": 1}, \"47\": {\"C\": 1}, \"48\": {\"C\": 1}, \"49\": {\"C\": 1}, \"50\": {\"C\": 1}, \"51\": {\"C\": 1}, \"52\": {\"C\": 1}, \"53\": {\"C\": 1}, \"54\": {\"C\": 1}, \"55\": {\"C\": 1}, \"56\": {\"C\": 1}, \"57\": {\"C\": 1}, \"58\": {\"C\": 1}, \"59\": {\"C\": 1}, \"60\": {\"C\": 1}, \"61\": {\"C\": 1}, \"62\": {\"C\": 1}, \"63\": {\"C\": 1}, \"64\": {\"C\": 1}, \"65\": {\"C\": 1}, \"66\": {\"C\": 1}, \"67\": {\"C\": 1}, \"68\": {\"C\": 1}, \"69\": {\"C\": 1}, \"70\": {\"C\": 1}, \"71\": {\"C\": 1}, \"72\": {\"C\": 1}, \"73\": {\"C\": 1}, \"74\": {\"C\": 1}, \"75\": {\"C\": 1}, \"76\": {\"C\": 1}, \"77\": {\"C\": 1}, \"78\": {\"C\": 1}, \"79\": {\"C\": 1}, \"80\": {\"C\": 1}, \"81\": {\"C\": 1}, \"82\": {\"C\": 1}, \"83\": {\"C\": 1}, \"84\": {\"N\": 1}, \"85\": {\"N\": 1}, \"86\": {\"N\": 1}, \"87\": {\"N\": 1}, \"88\": {\"N\": 1}, \"89\": {\"N\": 1}, \"90\": {\"N\": 1}, \"91\": {\"N\": 1}, \"92\": {\"N\": 1}, \"93\": {\"N\": 1}, \"94\": {\"N\": 1}, \"95\": {\"N\": 1}, \"96\": {\"N\": 1}, \"97\": {\"N\": 1}, \"98\": {\"N\": 1}, \"99\": {\"N\": 1}, \"100\": {\"O\": 1}, \"101\": {\"O\": 1}, \"102\": {\"O\": 1}, \"103\": {\"O\": 1}, \"104\": {\"O\": 1}, \"105\": {\"O\": 1}, \"106\": {\"O\": 1}, \"107\": {\"O\": 1}, \"108\": {\"O\": 1}, \"109\": {\"O\": 1}, \"110\": {\"O\": 1}, \"111\": {\"O\": 1}, \"112\": {\"O\": 1}, \"113\": {\"O\": 1}, \"114\": {\"O\": 1}, \"115\": {\"O\": 1}}" energy=-762.4834594726562 free_energy=-762.4834594726562 stress="-0.05302376300096512 0.00428394041955471 -0.00328266154974699 0.00428394041955471 -0.0486832819879055 -0.0018473818199709058 -0.00328266154974699 -0.0018473818199709058 -0.034028060734272" pbc="T T T"
Cu      -0.02822937       5.66114075       6.88634821        0       0.31236246      -0.26039687       0.07747564
Cu       7.42816761      11.31735185       0.01739392        1       0.60793340      -0.50749654       0.28725392
Cu       3.69801479       5.65318324       0.00043875        2       0.42447659       0.14982763       0.25317520
Cu       3.69830969      11.36397248       6.90991648        3       0.16324206      -0.71071982      -0.08414367
H        5.31577870       7.92627648      10.13141263        4      -1.36552298       1.10312736      -0.87614191
H        2.08957151       9.03954335       3.15041105        5       0.62367404      -0.81101799      -0.16158968
H        1.62621513       3.32684858      10.60710292        6      -1.53986359      -1.11555398       0.91721249
H        5.82054499       2.26655799       3.64715528        7       0.26738983       0.19153039       0.68235707
H        2.11767197       3.36682410       3.64655483        8       0.89840269      -0.96881467       0.78225124
H        5.33038359       2.24315901      10.60663052        9      -1.08508098       0.63324076       0.62683570
H        5.81995761       7.91918566       3.15450578       10       0.10741583       0.45696437       0.38306588
H        1.60783298       8.99534683      10.12037376       11      -1.73180437      -1.47958541      -1.03997421
H        5.54420096       6.34591637      10.89793904       12      -0.61942458      -0.43850434      -0.16680843
H        1.89952418      10.59165283       3.90674323       13       0.26964858       0.40250960       0.23490953
H        1.76548593       4.91428229       9.82899802       14      -0.31408846       0.41343719       0.10605648
H        5.62934217       0.74530220       2.95605124       15       1.54459238      -2.83591986      -0.97201985
H        1.90019984       4.91836240       2.88050571       16      -0.45675409      -0.21607612       0.82959205
H        5.54844253       0.67608870       9.86155853       17      -1.46356511      -2.02361321      -0.69736707
H        5.62922485       6.41134039       3.91788749       18       0.94704670      -2.16004324       0.67194301
H        1.76189090      10.58192317      10.80625828       19      -0.90822911       1.26058555       0.61137164
H        6.15552525       9.91036745      11.27033150       20      -0.71745229       0.54035288      -0.83052069
H        1.28866574       7.13844893       4.38457316       21       0.74268824      -1.23869872      -1.06087637
H        2.43551965       1.46016546       9.49640546       22      -1.25674331      -1.83592772       1.66118026
H        5.02553545       4.22376193       2.60922175       23      -0.31019443      -0.42167434      -0.05344705
H        1.33506827       1.44959509       2.60982113       24       0.10581045      -0.44647479       0.28677005
H        6.12672603       4.21748178       9.48203313       25      -0.46519002       0.45204595       0.68348551
H        5.00413613       9.89766670       4.38795182       26      -0.00833414      -0.26715717      -0.18477592
H        2.40801604       7.09704234      11.23324568       27      -0.56874800      -0.83317184      -0.70838743
H        0.86839967       8.33301039       0.58148655       28       0.84317738      -0.21336468       1.49916196
H        6.51200591       8.69914482       7.50736171       29      -0.85016507      -0.04614809       1.43663394
H        4.58370458       3.09260538       6.28206514       30      -0.14842942       0.01158147      -0.00705505
H        2.82391162       2.63524685      13.19916697       31      -0.65958536      -0.55156338      -0.98351490
H        6.58506595       3.07689869      13.19914195       32      -0.97278339       0.01509558      -1.62330735
H        0.87278622       2.65416702       6.31569973       33      -0.09238785      -0.83048713       0.02980960
H        2.86604578       8.27258757       7.46079478       34      -1.34757090      -0.15020996       2.09427834
H        4.64775235       8.79080308       0.66647317       35      -0.44114542      -0.34270146      -0.33034340
H        0.06114699       6.30755934      12.68729505       36       1.04544890      -6.15819645       0.21179640
H        7.28616851      10.70877720       5.79124664       37      -0.05774427      -0.13660204       0.27612981
H        3.78646272       5.04358319       8.02580900       38       0.02258100      -0.14957558      -0.01897678
H        3.63967470       0.63355518       1.15484389       39      -0.99755496      -4.88223743      -0.10252903
H        7.28834701       5.03629907       1.11959488       40      -0.09799973       0.03296544      -0.03081094
H        0.10712282       0.63498655       8.02216103       41       0.64408791      -3.08504438      -0.02533367
H        3.60117624       6.28907121       5.83647738       42      -0.69722182      -2.97844768       0.21813256
H        3.78323895      10.71359183      12.62195284       43       0.20691074      -0.04463643       0.43584561
C        6.94989684       6.78515950       9.42903068       44       2.02294779       1.40777230       0.41625389
C        0.44570397      10.12059994       2.55975499       45       4.71761084       1.38933778      -3.30677676
C        3.24635397       4.46831496      11.32455282       46       0.99291170      -0.20364115      -2.25037289
C        4.14701152       1.11248525       4.43057072       47       4.12728310       1.69023991      -4.00393200
C        0.40998896       4.45184107       4.44247061       48       9.05877399       0.84534609       0.23549646
C        6.94070523       1.12291148      11.28777210       49       3.28426743       0.90766323      -0.06405863
C        4.12889938       6.89060476       2.45640686       50       6.96030331      -1.41376293       0.69826567
C        3.21613561      10.12535291       9.43134261       51       3.25710344       0.41396433       0.69786054
C        6.01535275       7.25006625      10.51644706       52       1.04205489      -1.44832563       1.38300586
C        1.36896938       9.69192503       3.59963033       53       0.26104215       0.00866923       1.86524916
C        2.27880205       4.02290676      10.18421274       54       1.52299106       1.21826291       0.41326967
C        5.09248989       1.54596261       3.28136021       55      -0.87182689       2.10750866       1.37471318
C        1.35919700       4.02169205       3.30868282       56       0.13145444       1.99788475      -1.10312700
C        6.01098479       1.53943046      10.19516432       57       1.47844052       1.06291687       0.13065222
C        5.09783095       7.25858997       3.65059446       58      -1.18320620       1.72668922      -1.72416961
C        2.25413331       9.69067961      10.52847555       59       2.62668824       0.24897251       0.28256649
C        6.60325223       9.19980032      11.91139097       60      -0.27198994      -0.99782217      -1.49922037
C        0.74663990       7.76018183       5.02559448       61       2.35099840       0.43936378      -3.45822001
C        2.90253765       2.10604772       8.85733200       62       1.20962667      -1.93928623      -2.24046135
C        4.46835954       3.51807019       1.96912663       63       1.35268533       2.03644633       0.48158470
C        0.75086274       2.07391696       1.95901922       64       1.06034935       0.63170350       0.84854621
C        6.62411321       3.51728674       8.85657058       65       0.70927960       0.97371387      -1.65920043
C        4.46972708       9.19153737       5.02765178       66       2.46272564       1.21142077      -3.77618957
C        2.87807094       7.77934055      11.88540472       67       1.12669814      -2.46988177       1.19378924
C        0.25025350       8.31840368      13.50844727       68       1.37549675      -1.17319083       0.35503677
C        7.09021177       8.63327851       6.64457365       69       1.34793484      -0.06891519      -1.50083327
C        3.97765790       2.98529461       7.17828250       70       0.43714508      -0.00511390       0.03333914
C        3.37739900       2.60234860       0.32681432       71       1.82033169       1.16207075       1.10444009
C        7.09703716       2.96321543       0.32659572       72       1.27327943       0.14197569       1.18747652
C        0.25403065       2.60002750       7.21060404       73       0.98317862       1.78715193      -1.50258827
C        3.38746079       8.33477780       6.58074413       74       0.48466781      -0.76105344       0.42636773
C        4.00257388       8.63512650      13.55276913       75       0.94257820       1.53221309       0.00166515
C        7.41562323       7.26081529      12.71811265       76      -2.75496387       6.44242668      -1.75304675
C        0.06431141       9.64344805       5.83274789       77      -0.67924726       1.36065495      -0.17763534
C        3.59687238       3.97118836       8.04564669       78       0.25305513       1.23534811      -0.50587356
C        3.84067834       1.59263378       1.16733192       79      -0.96320850       4.75923347      -1.80813813
C        0.04698167       3.97303614       1.16274382       80      -1.31325543       1.50287867      -1.37789154
C        7.32644275       1.61827634       8.04768043       81      -0.25832757       1.36046386      -0.04351979
C        3.83031998       7.27609601       5.83443287       82      -0.52650976       2.65022087       0.09804463
C        3.60925659       9.64339176      12.70305687       83      -0.16573989       0.99454767      -0.30974260
N        6.62134644       7.86449227      11.67690355       84       1.10115862       0.16286454       0.71146768
N        0.74230331       9.07435518       4.78830946       85       0.43227646       0.74789071      -0.70483696
N        2.89400975       3.38799412       9.07629073       86       1.13575196       1.15814829      -1.10221982
N        4.46265832       2.18740862       2.19737046       87      -0.15449317       1.14720964      -0.56379521
N        0.72365105       3.43682276       2.16681281       88       0.45408273      -2.52318597       1.08802366
N        6.63536126       2.18967525       9.07778922       89       0.35972396       1.02630961      -0.53918713
N        4.44545928       7.86658711       4.78526139       90       1.29929399       0.26731107      -1.01287246
N        2.89794031       9.05726108      11.66552667       91       0.31151462       1.88999534       0.51394695
N        7.32508176       9.48596274      12.95911315       92      -0.45919034       1.41022789       1.10565543
N        0.14143384       7.43951401       6.07575807       93      -2.91526008      -0.26990575       4.44047928
N        3.58166437       1.75269180       7.69839058       94      -1.00236034       1.92174172       1.46075320
N        3.89904958       3.88393794       0.80822330       95      -1.08597350      -3.50343990       0.57831734