88
Lattice="5.11449956 0.0 0.0 -7.270364577288598e-06 10.774992389997546 0.0 6.6007101443881746e-06 -1.005499523435977e-05 17.6395910999959" Properties=species:S:1:pos:R:3:spacegroup_kinds:I:1:forces:R:3 spacegroup="P 1" unit_cell=conventional occupancy="_JSON {\"0\": {\"Zn\": 1}, \"1\": {\"Zn\": 1}, \"2\": {\"Zn\": 1}, \"3\": {\"Zn\": 1}, \"4\": {\"H\": 1}, \"5\": {\"H\": 1}, \"6\": {\"H\": 1}, \"7\": {\"H\": 1}, \"8\": {\"H\": 1}, \"9\": {\"H\": 1}, \"10\": {\"H\": 1}, \"11\": {\"H\": 1}, \"12\": {\"H\": 1}, \"13\": {\"H\": 1}, \"14\": {\"H\": 1}, \"15\": {\"H\": 1}, \"16\": {\"H\": 1}, \"17\": {\"H\": 1}, \"18\": {\"H\": 1}, \"19\": {\"H\": 1}, \"20\": {\"H\": 1}, \"21\": {\"H\": 1}, \"22\": {\"H\": 1}, \"23\": {\"H\": 1}, \"24\": {\"H\": 1}, \"25\": {\"H\": 1}, \"26\": {\"H\": 1}, \"27\": {\"H\": 1}, \"28\": {\"H\": 1}, \"29\": {\"H\": 1}, \"30\": {\"H\": 1}, \"31\": {\"H\": 1}, \"32\": {\"C\": 1}, \"33\": {\"C\": 1}, \"34\": {\"C\": 1}, \"35\": {\"C\": 1}, \"36\": {\"C\": 1}, \"37\": {\"C\": 1}, \"38\": {\"C\": 1}, \"39\": {\"C\": 1}, \"40\": {\"C\": 1}, \"41\": {\"C\": 1}, \"42\": {\"C\": 1}, \"43\": {\"C\": 1}, \"44\": {\"C\": 1}, \"45\": {\"C\": 1}, \"46\": {\"C\": 1}, \"47\": {\"C\": 1}, \"48\": {\"C\": 1}, \"49\": {\"C\": 1}, \"50\": {\"C\": 1}, \"51\": {\"C\": 1}, \"52\": {\"C\": 1}, \"53\": {\"C\": 1}, \"54\": {\"C\": 1}, \"55\": {\"C\": 1}, \"56\": {\"C\": 1}, \"57\": {\"C\": 1}, \"58\": {\"C\": 1}, \"59\": {\"C\": 1}, \"60\": {\"C\": 1}, \"61\": {\"C\": 1}, \"62\": {\"C\": 1}, \"63\": {\"C\": 1}, \"64\": {\"C\": 1}, \"65\": {\"C\": 1}, \"66\": {\"C\": 1}, \"67\": {\"C\": 1}, \"68\": {\"C\": 1}, \"69\": {\"C\": 1}, \"70\": {\"C\": 1}, \"71\": {\"C\": 1}, \"72\": {\"N\": 1}, \"73\": {\"N\": 1}, \"74\": {\"N\": 1}, \"75\": {\"N\": 1}, \"76\": {\"O\": 1}, \"77\": {\"O\": 1}, \"78\": {\"O\": 1}, \"79\": {\"O\": 1}, \"80\": {\"O\": 1}, \"81\": {\"O\": 1}, \"82\": {\"O\": 1}, \"83\": {\"O\": 1}, \"84\": {\"O\": 1}, \"85\": {\"O\": 1}, \"86\": {\"O\": 1}, \"87\": {\"O\": 1}}" energy=-597.7125244140625 free_energy=-597.7125244140625 stress="-0.002821800298988819 9.786232840269804e-05 -0.0003310020547360182 9.786232840269804e-05 0.0006522138137370348 0.0002519625413697213 -0.0003310020547360182 0.0002519625413697213 -0.0008166776387952268" pbc="T T T"
Zn       2.15157373       1.08993103       9.10606330        0      -0.27148581       0.26985332       0.04543459
Zn       4.70813199       9.67988211       8.53850393        1      -0.21643375      -0.21832484      -0.10062308
Zn       2.15016731       6.47597163      17.35925149        2      -0.24174961       0.27582875      -0.11429662
Zn       4.70830763       4.29874538       0.28418034        3      -0.19036469      -0.29441041       0.10154506
H        1.97986153       9.81099220       7.61315206        4       0.18771437      -0.27396721      -0.26631284
H        4.54081905       0.96733407      10.03347945        5      -0.07892849       0.07260698      -0.04491243
H        1.98419876       4.42835833       1.21307475        6       0.11755483      -0.24939868       0.21248989
H        4.54476973       6.35323652      16.42732872        7      -0.27121544      -0.07142469       0.27096644
H        4.86304207       0.56221102      12.67557600        8      -0.04048281       0.00981677       0.03811118
H        2.30312146      10.21805056       4.95793458        9      -0.08290394       0.16561286       0.14815158
H        4.86344185       5.94972271      13.78587981       10      -0.07524440      -0.10034393       0.00655772
H        2.30497438       4.83153715       3.85671659       11       0.01675981      -0.07938294       0.06437156
H        2.11815764       4.04550687      13.50101789       12      -0.05263080      -0.03667122       0.08887489
H        4.67479807       6.73483454       4.13212902       13       0.14574373      -0.14929172       0.04383105
H        2.11991741       9.43203162      12.95354750       14      -0.15676954      -0.14033073      -0.08551382
H        4.67596417       1.34953282       4.68286768       15       0.15044367      -0.18585309      -0.00877793
H        1.07601418       4.26631704      15.73978455       16       0.16732879       0.28108972       0.18658185
H        3.64162746       6.50564353       1.89338710       17       0.04704902       0.05885784       0.07652678
H        1.08527885       9.65705935      10.72141361       18       0.07563996       0.09226353      -0.04876499
H        3.64245419       1.11997192       6.91951979       19       0.05081295      -0.06252373       0.02237874
H        2.92502304       1.99944210       0.43898776       20      -0.14507067      -0.05760642       0.11957130
H        0.36499004       8.77281043      17.20477821       21      -0.16655840       0.00313590      -0.21214072
H        2.92389413       7.38227398       8.37742547       22       0.03199916      -0.03157568       0.18827000
H        0.36723918       3.38940505       9.25565821       23      -0.07759830       0.06506570      -0.01789734
H        2.29211816      10.75570543      16.71399073       24       0.02699932       0.04973143       0.00021558
H        4.85087508       0.01241048       0.91929470       25      -0.18520722       0.17958571      -0.06714363
H        2.29681879       5.37184678       9.74073215       26      -0.17548627      -0.12741406      -0.10871011
H        4.84481728       5.40373814       7.90165584       27       0.03136670      -0.00849755      -0.02999075
H        3.34961220      10.40511956      14.50563403       28      -0.04380120      -0.05694564       0.01197642
H        0.79242633       0.36930000       3.13354381       29       0.00244094       0.01311395      -0.00711595
H        3.34808471       5.02141073      11.95413034       30       0.00479025       0.08669451      -0.10724714
H        0.79146419       5.75542270       5.68655543       31      -0.01884343       0.00073259      -0.00548215
C        0.03344031       1.36992887      13.35160614       32       0.09113932      -0.08943598      -0.09886094
C        2.58870500       9.41170783       4.29375562       33       0.19301175      -0.35148636      -0.26944408
C        0.03376949       6.75027403      13.10663790       34       0.10912158       0.03337592       0.22468698
C        2.59653167       4.02255982       4.53205630       35      -0.08508484       0.04907471       0.03311916
C        0.97678116       2.29655287      12.94680525       36       0.19533958       0.28365558       0.05021325
C        3.53394510       8.47771227       4.69716175       37       0.02560794      -0.11862805      -0.17010829
C        0.97077407       7.68015414      13.51648350       38       0.25411552       0.37579823      -0.21755669
C        3.53366229       3.08890780       4.12959354       39       0.16857974      -0.12402663      -0.14611611
C        1.35913570       3.33542529      13.83587968       40       0.25430959       0.08673998      -0.36241138
C        3.91784690       7.43931731       3.81096532       41      -0.04521410       0.10956697      -0.02221854
C        1.35407525       8.71982861      12.62429729       42       0.46150929       0.16782224       0.61303341
C        3.91849739       2.04846970       5.01288420       43      -0.00078471       0.17329526      -0.24277510
C        0.78392192       3.46604072      15.07944221       44      -0.44095862      -0.66766769      -0.28616545
C        3.34315554       7.31536413       2.56044148       45      -0.11802772       0.18984525       0.27547961
C        0.78396985       8.85382931      11.38561101       46      -0.59045529      -0.63001382      -0.12593803
C        3.33974211       1.92382742       6.25393036       47      -0.24069831       0.35254890       0.01014411
C        3.38105242       1.80868845      17.11257124       48       0.22165610      -0.07338113      -0.33506978
C        0.82276236       8.95906072       0.52816382       49       0.15697144       0.37230980       0.55356270
C        3.38440508       7.20259218       9.35620295       50      -0.44001302      -0.43532091      -0.42148921
C        0.82422512       3.58050736       8.28459089       51       0.01068211       0.04404651       0.01697138
C        3.02545909       0.69319546      16.33209843       52      -0.29773539       0.03792423       0.50243527
C        0.46143052      10.08447536       1.30674540       53       0.24545975      -0.56586969      -0.26462010
C        3.01978751       6.08210811      10.12003331       54       0.17883293       0.23407432       0.09551379
C        0.46474586       4.69673313       7.51464582       55      -0.10830155      -0.09227620       0.17815810
C        3.60151615       0.50562416      15.10198675       56       0.37120911       0.22524166      -0.33721012
C        1.04854976      10.26573529       2.54078189       57      -0.05387037      -0.01356822      -0.03573066
C        3.60332758       5.90237121      11.35640513       58      -0.11390031      -0.28987795       0.15723670
C        1.04530167       4.87444663       6.27703924       59      -0.07108264       0.17482083       0.00034717
C        4.55606194       1.44891139      14.63061179       60      -0.23965748       0.06235155       0.37752286
C        1.99394853       9.32237629       3.00980167       61       0.02799578      -0.06169674      -0.05118997
C        4.55075785       6.83543232      11.83246369       62      -0.04345858       0.26727358      -0.47001827
C        1.99195849       3.93907340       5.81137880       63       0.20326619      -0.25622359       0.12831639
C        4.90789386       2.53875539      15.49576774       64       0.14513110       0.07038300      -0.08650711
C        2.35411131       8.23460597       2.14828881       65      -0.07775139       0.00362302      -0.14562638
C        4.90474922       7.92257493      10.96599220       66       0.31330246       0.26769692       0.22508341
C        2.35496703       2.85142984       6.67720385       67      -0.00124937      -0.07030492      -0.24961706
C        1.60964648       2.22779368      11.58172161       68      -0.28129596       0.02983876       0.67544961
C        4.16693821       8.54532300       6.05025999       69      -0.17132999       0.21555081       0.00328967
C        1.60642930       7.61695824      14.87390722       70      -0.15737256      -0.07832540      -0.29256591
C        4.15936972       3.16365494       2.76082857       71       0.26374283      -0.37594527       0.65314293
N        4.30938961       2.69178713      16.72161763       72      -0.11328913      -0.07974421       0.03916006
N        1.75339970       8.07946892       0.91825799       73      -0.08465125       0.12602130       0.09108243
N        4.30553131       8.07469113       9.74292658       74       0.27180529       0.33009407       0.09462886
N        1.74692818       2.69458801       7.89409241       75       0.02750339      -0.02186203       0.13146973
O        2.56144724       2.97347018      11.29485187       76       0.19007128       0.00989305      -0.19974700
O        0.00841814       7.80819882       6.35099219       77       0.12778562      -0.05064894       0.02282534
O        2.56035727       8.35899469      15.16930814       78       0.11810538       0.03053725       0.03968313
O        0.00834707       2.41823620       2.47348877       79      -0.20180038       0.24252659      -0.08445066
O        1.08757450       1.34508842      10.77537334       80       0.06170788      -0.20170841      -0.32012919
O        3.64925227       9.43013477       6.87153300       81       0.05906555       0.03324273      -0.00216533
O        1.09280540       6.73362506      15.69024575       82      -0.03046274      -0.18887776       0.17622896
O        3.64622596       4.04538203       1.95539642       83      -0.03436634       0.27026665      -0.34676790
O        1.41582073      10.24081162       8.27689437       84      -0.04518327       0.06359158       0.15217678
O        3.97025296       0.53349299       9.36399022       85       0.28953108       0.10316549       0.18078110
O        1.41893553       4.85177747       0.54402406       86      -0.01235490       0.01084910      -0.07561599
O        3.96826232       5.91718708      17.10174546       87       0.49792129       0.30981672      -0.44255251
88
Lattice="5.11449956 0.0 0.0 -7.270364577288598e-06 10.774992389997546 0.0 6.6007101443881746e-06 -1.005499523435977e-05 17.6395910999959" Properties=species:S:1:pos:R:3:spacegroup_kinds:I:1:forces:R:3 spacegroup="P 1" unit_cell=conventional occupancy="_JSON {\"0\": {\"Zn\": 1}, \"1\": {\"Zn\": 1}, \"2\": {\"Zn\": 1}, \"3\": {\"Zn\": 1}, \"4\": {\"H\": 1}, \"5\": {\"H\": 1}, \"6\": {\"H\": 1}, \"7\": {\"H\": 1}, \"8\": {\"H\": 1}, \"9\": {\"H\": 1}, \"10\": {\"H\": 1}, \"11\": {\"H\": 1}, \"12\": {\"H\": 1}, \"13\": {\"H\": 1}, \"14\": {\"H\": 1}, \"15\": {\"H\": 1}, \"16\": {\"H\": 1}, \"17\": {\"H\": 1}, \"18\": {\"H\": 1}, \"19\": {\"H\": 1}, \"20\": {\"H\": 1}, \"21\": {\"H\": 1}, \"22\": {\"H\": 1}, \"23\": {\"H\": 1}, \"24\": {\"H\": 1}, \"25\": {\"H\": 1}, \"26\": {\"H\": 1}, \"27\": {\"H\": 1}, \"28\": {\"H\": 1}, \"29\": {\"H\": 1}, \"30\": {\"H\": 1}, \"31\": {\"H\": 1}, \"32\": {\"C\": 1}, \"33\": {\"C\": 1}, \"34\": {\"C\": 1}, \"35\": {\"C\": 1}, \"36\": {\"C\": 1}, \"37\": {\"C\": 1}, \"38\": {\"C\": 1}, \"39\": {\"C\": 1}, \"40\": {\"C\": 1}, \"41\": {\"C\": 1}, \"42\": {\"C\": 1}, \"43\": {\"C\": 1}, \"44\": {\"C\": 1}, \"45\": {\"C\": 1}, \"46\": {\"C\": 1}, \"47\": {\"C\": 1}, \"48\": {\"C\": 1}, \"49\": {\"C\": 1}, \"50\": {\"C\": 1}, \"51\": {\"C\": 1}, \"52\": {\"C\": 1}, \"53\": {\"C\": 1}, \"54\": {\"C\": 1}, \"55\": {\"C\": 1}, \"56\": {\"C\": 1}, \"57\": {\"C\": 1}, \"58\": {\"C\": 1}, \"59\": {\"C\": 1}, \"60\": {\"C\": 1}, \"61\": {\"C\": 1}, \"62\": {\"C\": 1}, \"63\": {\"C\": 1}, \"64\": {\"C\": 1}, \"65\": {\"C\": 1}, \"66\": {\"C\": 1}, \"67\": {\"C\": 1}, \"68\": {\"C\": 1}, \"69\": {\"C\": 1}, \"70\": {\"C\": 1}, \"71\": {\"C\": 1}, \"72\": {\"N\": 1}, \"73\": {\"N\": 1}, \"74\": {\"N\": 1}, \"75\": {\"N\": 1}, \"76\": {\"O\": 1}, \"77\": {\"O\": 1}, \"78\": {\"O\": 1}, \"79\": {\"O\": 1}, \"80\": {\"O\": 1}, \"81\": {\"O\": 1}, \"82\": {\"O\": 1}, \"83\": {\"O\": 1}, \"84\": {\"O\": 1}, \"85\": {\"O\": 1}, \"86\": {\"O\": 1}, \"87\": {\"O\": 1}}" energy=-597.6688232421875 free_energy=-597.6688232421875 stress="-0.002341648330911994 0.0005109437624923885 -0.0006964170024730265 0.0005109437624923885 0.0005296403542160988 0.0009459042921662331 -0.0006964170024730265 0.0009459042921662331 -0.0009531526011414826" pbc="T T T"
Zn       2.15036224       1.09336063       9.11003243        0      -0.21684413       0.18642321      -0.04832971
Zn       4.70987313       9.68216948       8.54163457        1      -0.24126440      -0.26631230      -0.13327745
Zn       2.14961923       6.47778121      17.35793776        2      -0.23376516       0.26535201      -0.07642694
Zn       4.70990426       4.29752704       0.28827003        3      -0.18708874      -0.24285850       0.06768652
H        1.97505641       9.81083108       7.61173129        4       0.39746070      -0.43130106      -0.50728893
H        4.54449653       0.96675854      10.03801550        5      -0.14223997       0.02965981      -0.11018488
H        1.98408711       4.42455867       1.20906723        6       0.27492234      -0.35673344       0.40009305
H        4.54433355       6.35568655      16.42834386        7      -0.30857259      -0.10033359       0.30155373
H        4.86257254       0.55934977      12.67462902        8       0.02784390       0.16399914       0.13130194
H        2.30733088      10.22300043       4.95794389        9      -0.07430585       0.07556006       0.08046592
H        4.86367515       5.95462252      13.78951054       10      -0.12788619      -0.23969099       0.08493130
H        2.30914157       4.82720988       3.86063702       11      -0.01827994      -0.02020368       0.04414165
H        2.12045633       4.04959492      13.49826190       12      -0.10147028      -0.07978254       0.09532849
H        4.67727090       6.73498185       4.12875121       13       0.19884552      -0.21513638       0.06252068
H        2.11759165       9.43667496      12.95212023       14      -0.12379472      -0.13580170      -0.06668121
H        4.67251172       1.34942770       4.67911295       15       0.13871276      -0.16172002       0.00446665
H        1.07257602       4.26148505      15.74250362       16       0.19793491       0.36517915       0.20904751
H        3.64191424       6.50539414       1.89026119       17       0.00546124       0.14255261       0.13984118
H        1.08794150       9.66160770      10.72577768       18       0.04206667       0.01230828      -0.05139521
H        3.64617546       1.12174318       6.91667617       19       0.04640365      -0.10297577       0.05106721
H        2.92574851       2.00075100       0.44272390       20      -0.07682635      -0.13438079      -0.08642219
H        0.36486952       8.77700245      17.20245579       21      -0.20544699      -0.04345644      -0.29416087
H        2.92119444       7.38100537       8.37727662       22       0.05962033      -0.03490037       0.16964217
H        0.36986977       3.38586620       9.25800415       23      -0.06563972       0.12104827      -0.12992217
H        2.28805185      10.75238245      16.71568065       24       0.23907177       0.25532040      -0.10916544
H        4.85111991       0.01063405       0.92188326       25      -0.30158219       0.30969042      -0.10083387
H        2.30122486       5.36778647       9.74381803       26      -0.17943500      -0.09389838      -0.13170061
H        4.84381040       5.40643603       7.90466932       27       0.15263665      -0.10654497      -0.10894476
H        3.34465785      10.40084341      14.50596252       28       0.03301778       0.12109435       0.11019489
H        0.79476021       0.36917474       3.13447450       29       0.01851238       0.01321524       0.01647717
H        3.34454961       5.02423024      11.95721419       30       0.02907833       0.13118796      -0.14106657
H        0.79413179       5.75678241       5.68932050       31      -0.04975962       0.08108144      -0.07847312
C        0.03679733       1.37428770      13.34998112       32      -0.11661558      -0.46728262      -0.04545916
C        2.58852664       9.41047298       4.29421394       33       0.22824951      -0.29007792      -0.21317439
C        0.03361521       6.74552756      13.10707300       34       0.21428373       0.32941180       0.09217361
C        2.59854007       4.02066512       4.53680828       35      -0.07126568       0.08452529       0.03809909
C        0.98055750       2.29345221      12.95142191       36       0.35635573       0.44004619      -0.26835483
C        3.53159894       8.47610835       4.69879649       37       0.06775008      -0.24541909      -0.21523590
C        0.97085399       7.67886556      13.51186409       38       0.28691590       0.32216957      -0.05242729
C        3.53868916       3.09259276       4.13378719       39       0.18456484      -0.08744653      -0.38822860
C        1.35780089       3.33979421      13.83098558       40       0.28652924       0.12827617      -0.17954499
C        3.91954505       7.43497556       3.80874002       41      -0.19977106       0.34442806       0.07000233
C        1.35752063       8.72064036      12.62222581       42       0.39131117       0.06314564       0.63166040
C        3.91763223       2.05266411       5.00861238       43      -0.00648750      -0.01399111       0.09848151
C        0.78076616       3.46924160      15.07614788       44      -0.46243069      -0.73970997      -0.37378687
C        3.34144891       7.31622902       2.56089448       45      -0.06054154       0.07927129       0.14695287
C        0.78805651       8.84942718      11.38297634       46      -0.51301408      -0.42824566      -0.09594695
C        3.33693680       1.92486638       6.25529010       47      -0.05741615       0.29392797      -0.23784009
C        3.37980425       1.80503437      17.10859684       48       0.29130617       0.29685754       0.11274052
C        0.81847686       8.95738564       0.52528609       49       0.33218184       0.48133165       0.92264879
C        3.38815428       7.19819653       9.35249057       50      -0.50058347      -0.24907300      -0.45823860
C        0.82025714       3.58234831       8.28150812       51       0.22235908      -0.16048548       0.09281525
C        3.02932319       0.69644477      16.33326660       52      -0.58448339      -0.38021275       0.39138013
C        0.45817643      10.08743133       1.31052271       53       0.46780318      -0.93101335      -0.36150369
C        3.01928272       6.08679480      10.11705375       54       0.25656992      -0.06669827       0.41069067
C        0.46804050       4.69845731       7.51186614       55      -0.42885584       0.03503305       0.41686130
C        3.60507222       0.50843105      15.10038264       56       0.21756341      -0.07368542      -0.34715194
C        1.05216059      10.26526175       2.54307833       57      -0.13371581       0.03435009      -0.11550678
C        3.60498075       5.90476869      11.35824651       58      -0.25895995      -0.23312435      -0.04120895
C        1.04139537       4.87561901       6.27581742       59       0.26721826      -0.06785369      -0.11527698
C        4.56008425       1.44495052      14.63224537       60      -0.22198582       0.26225200       0.27866885
C        1.99862760       9.32203457       3.00795642       61      -0.07908601       0.04220673      -0.02235832
C        4.55003366       6.84013331      11.83327766       62      -0.06403680       0.05124943      -0.35933864
C        1.99571512       3.93544362       5.81440770       63      -0.05625744      -0.03864941       0.13005295
C        4.90361448       2.54216762      15.49323185       64       0.23808309       0.04367658       0.00868905
C        2.35209153       8.23748678       2.14487732       65       0.10720336      -0.13774966       0.06198364
C        4.90703587       7.92328777      10.97021298       66       0.13307056       0.28540650      -0.11878474
C        2.35269189       2.84668125       6.68108711       67       0.13367556       0.08401626      -0.52289015
C        1.61211227       2.22352415      11.57745994       68      -0.10051824       0.39984447       1.02173924
C        4.16193596       8.54119028       6.05457443       69      -0.11213063       0.23734391      -0.11174735
C        1.60180583       7.61229091      14.87423867       70       0.28696766       0.30872956      -0.29164413
C        4.16391346       3.16721402       2.75636112       71       0.11089306      -0.47153735       1.11745322
N        4.31170741       2.69266740      16.72479957       72      -0.16658288      -0.16761409      -0.12688062
N        1.75388540       8.07613624       0.92177860       73      -0.37794489       0.31064364      -0.21099561
N        4.30058200       8.07626379       9.74361049       74       0.46241945       0.34537083       0.24418396
N        1.75055546       2.69659559       7.89110237       75      -0.29148662      -0.01351957       0.51797575
O        2.56136720       2.97712527      11.29012135       76       0.07505202      -0.10761000      -0.17647997
O        0.00820719       7.80636627       6.34722436       77       0.09501261      -0.03956964       0.07338133
O        2.56540606       8.35930834      15.16672511       78      -0.32862833      -0.32930499      -0.04663076
O        0.01041364       2.42308123       2.47503934       79       0.01001172       0.10786921      -0.18907049
O        1.09141435       1.34599993      10.77917543       80      -0.06550512      -0.45019931      -0.54245102
O        3.64598041       9.42729828       6.87395101       81       0.08191213       0.00922579       0.03884514
O        1.08919058       6.73355635      15.69281512       82      -0.03364265      -0.16279480       0.14491417
O        3.64401183       4.04062939       1.95853253       83      -0.11471161       0.50066233      -0.60159671
O        1.41640986      10.23639851       8.27236555       84      -0.21370086       0.31770965       0.45110154
O        3.97412248       0.53264631       9.36588214       85       0.26234692       0.19795151       0.25317550
O        1.42322575       4.85175455       0.54698715       86      -0.23475862       0.12086216      -0.27887017
O        3.96321337       5.91451496      17.09708743       87       0.58011973       0.28743100      -0.45253161
88
Lattice="5.11449956 0.0 0.0 -7.270364577288598e-06 10.774992389997546 0.0 6.6007101443881746e-06 -1.005499523435977e-05 17.6395910999959" Properties=species:S:1:pos:R:3:spacegroup_kinds:I:1:forces:R:3 spacegroup="P 1" unit_cell=conventional occupancy="_JSON {\"0\": {\"Zn\": 1}, \"1\": {\"Zn\": 1}, \"2\": {\"Zn\": 1}, \"3\": {\"Zn\": 1}, \"4\": {\"H\": 1}, \"5\": {\"H\": 1}, \"6\": {\"H\": 1}, \"7\": {\"H\": 1}, \"8\": {\"H\": 1}, \"9\": {\"H\": 1}, \"10\": {\"H\": 1}, \"11\": {\"H\": 1}, \"12\": {\"H\": 1}, \"13\": {\"H\": 1}, \"14\": {\"H\": 1}, \"15\": {\"H\": 1}, \"16\": {\"H\": 1}, \"17\": {\"H\": 1}, \"18\": {\"H\": 1}, \"19\": {\"H\": 1}, \"20\": {\"H\": 1}, \"21\": {\"H\": 1}, \"22\": {\"H\": 1}, \"23\": {\"H\": 1}, \"24\": {\"H\": 1}, \"25\": {\"H\": 1}, \"26\": {\"H\": 1}, \"27\": {\"H\": 1}, \"28\": {\"H\": 1}, \"29\": {\"H\": 1}, \"30\": {\"H\": 1}, \"31\": {\"H\": 1}, \"32\": {\"C\": 1}, \"33\": {\"C\": 1}, \"34\": {\"C\": 1}, \"35\": {\"C\": 1}, \"36\": {\"C\": 1}, \"37\": {\"C\": 1}, \"38\": {\"C\": 1}, \"39\": {\"C\": 1}, \"40\": {\"C\": 1}, \"41\": {\"C\": 1}, \"42\": {\"C\": 1}, \"43\": {\"C\": 1}, \"44\": {\"C\": 1}, \"45\": {\"C\": 1}, \"46\": {\"C\": 1}, \"47\": {\"C\": 1}, \"48\": {\"C\": 1}, \"49\": {\"C\": 1}, \"50\": {\"C\": 1}, \"51\": {\"C\": 1}, \"52\": {\"C\": 1}, \"53\": {\"C\": 1}, \"54\": {\"C\": 1}, \"55\": {\"C\": 1}, \"56\": {\"C\": 1}, \"57\": {\"C\": 1}, \"58\": {\"C\": 1}, \"59\": {\"C\": 1}, \"60\": {\"C\": 1}, \"61\": {\"C\": 1}, \"62\": {\"C\": 1}, \"63\": {\"C\": 1}, \"64\": {\"C\": 1}, \"65\": {\"C\": 1}, \"66\": {\"C\": 1}, \"67\": {\"C\": 1}, \"68\": {\"C\": 1}, \"69\": {\"C\": 1}, \"70\": {\"C\": 1}, \"71\": {\"C\": 1}, \"72\": {\"N\": 1}, \"73\": {\"N\": 1}, \"74\": {\"N\": 1}, \"75\": {\"N\": 1}, \"76\": {\"O\": 1}, \"77\": {\"O\": 1}, \"78\": {\"O\": 1}, \"79\": {\"O\": 1}, \"80\": {\"O\": 1}, \"81\": {\"O\": 1}, \"82\": {\"O\": 1}, \"83\": {\"O\": 1}, \"84\": {\"O\": 1}, \"85\": {\"O\": 1}, \"86\": {\"O\": 1}, \"87\": {\"O\": 1}}" energy=-597.6235961914062 free_energy=-597.6235961914062 stress="-0.00305346236564219 0.00010609180753817782 -0.0005725790979340672 0.00010609180753817782 0.00027242503711022437 0.00202539493329823 -0.0005725790979340672 0.00202539493329823 -0.0019979190547019243" pbc="T T T"
Zn       2.14571016       1.08864805       9.10941316        0      -0.17648190       0.24345291      -0.03628837
Zn       4.71374234       9.68663687       8.54407121        1      -0.35563421      -0.30803740      -0.13823700
Zn       2.14561962       6.47306897      17.35593249        2      -0.19103327       0.31412798      -0.04498933
Zn       4.70671153       4.30097222       0.29085176        3      -0.20188260      -0.23635358       0.02831846
H        1.97824783       9.80792539       7.61382096        4       0.28979611      -0.35077703      -0.37530357
H        4.54363702       0.96671007      10.03875270        5      -0.11675876       0.07162321      -0.06384876
H        1.98617665       4.42554671       1.21367254        6       0.13193025      -0.26024193       0.23674081
H        4.54695371       6.35366915      16.42518522        7      -0.32627004      -0.07986986       0.29294068
H        4.85912086       0.55480157      12.67863979        8       0.03636062       0.20082329       0.12705812
H        2.30948931      10.22427824       4.95649676        9      -0.03555510      -0.01600286       0.01917632
H        4.85978971       5.95397040      13.78812771       10      -0.10913703      -0.19645414       0.07556154
H        2.30633101       4.83080100       3.86247700       11       0.04338872      -0.10310979       0.09938177
H        2.12257759       4.04860013      13.50191928       12      -0.00920160       0.01712221       0.04234076
H        4.67509122       6.73087674       4.12750773       13       0.19389337      -0.20842472       0.06609926
H        2.12258152       9.44041979      12.95679647       14      -0.40934494      -0.39406052      -0.20885487
H        4.66788225       1.34967245       4.67613654       15       0.17197254      -0.18034567      -0.00289495
H        1.07509419       4.26104823      15.73965695       16       0.16760723       0.35016704       0.19599479
H        3.63759519       6.50105710       1.89233220       17       0.01680098       0.15187538       0.13779853
H        1.08627372       9.65761275      10.72890016       18       0.11272112       0.20983878      -0.19356164
H        3.65003039       1.11896217       6.91719467       19       0.00340634       0.00832802      -0.01408084
H        2.92119854       2.00504398       0.43840997       20      -0.08696672      -0.14378223      -0.08844133
H        0.36358212       8.77483330      17.20028244       21      -0.16630901       0.02626341      -0.13372089
H        2.92203401       7.37891260       8.37643555       22       0.07485361      -0.06728075       0.25789577
H        0.37368758       3.39079470       9.25353458       23      -0.15558265       0.10294698      -0.01372050
H        2.29268996      10.75326445      16.71831764       24       0.15958872       0.17382304      -0.08619989
H        4.85548204       0.01034405       0.92671200       25      -0.42183200       0.43455136      -0.14813286