108
Lattice="8.15666594 0.0 0.0 2.011371067930143 7.913819327190378 0.0 3.2519398514805635 2.517033393030921 18.30075516644922" Properties=species:S:1:pos:R:3:spacegroup_kinds:I:1:forces:R:3 spacegroup="P 1" unit_cell=conventional occupancy="_JSON {\"0\": {\"Sn\": 1}, \"1\": {\"Sn\": 1}, \"2\": {\"Sn\": 1}, \"3\": {\"Sn\": 1}, \"4\": {\"H\": 1}, \"5\": {\"H\": 1}, \"6\": {\"H\": 1}, \"7\": {\"H\": 1}, \"8\": {\"H\": 1}, \"9\": {\"H\": 1}, \"10\": {\"H\": 1}, \"11\": {\"H\": 1}, \"12\": {\"H\": 1}, \"13\": {\"H\": 1}, \"14\": {\"H\": 1}, \"15\": {\"H\": 1}, \"16\": {\"H\": 1}, \"17\": {\"H\": 1}, \"18\": {\"H\": 1}, \"19\": {\"H\": 1}, \"20\": {\"H\": 1}, \"21\": {\"H\": 1}, \"22\": {\"H\": 1}, \"23\": {\"H\": 1}, \"24\": {\"H\": 1}, \"25\": {\"H\": 1}, \"26\": {\"H\": 1}, \"27\": {\"H\": 1}, \"28\": {\"H\": 1}, \"29\": {\"H\": 1}, \"30\": {\"H\": 1}, \"31\": {\"H\": 1}, \"32\": {\"H\": 1}, \"33\": {\"H\": 1}, \"34\": {\"H\": 1}, \"35\": {\"H\": 1}, \"36\": {\"H\": 1}, \"37\": {\"H\": 1}, \"38\": {\"H\": 1}, \"39\": {\"H\": 1}, \"40\": {\"H\": 1}, \"41\": {\"H\": 1}, \"42\": {\"H\": 1}, \"43\": {\"H\": 1}, \"44\": {\"H\": 1}, \"45\": {\"H\": 1}, \"46\": {\"H\": 1}, \"47\": {\"H\": 1}, \"48\": {\"H\": 1}, \"49\": {\"H\": 1}, \"50\": {\"H\": 1}, \"51\": {\"H\": 1}, \"52\": {\"C\": 1}, \"53\": {\"C\": 1}, \"54\": {\"C\": 1}, \"55\": {\"C\": 1}, \"56\": {\"C\": 1}, \"57\": {\"C\": 1}, \"58\": {\"C\": 1}, \"59\": {\"C\": 1}, \"60\": {\"C\": 1}, \"61\": {\"C\": 1}, \"62\": {\"C\": 1}, \"63\": {\"C\": 1}, \"64\": {\"C\": 1}, \"65\": {\"C\": 1}, \"66\": {\"C\": 1}, \"67\": {\"C\": 1}, \"68\": {\"C\": 1}, \"69\": {\"C\": 1}, \"70\": {\"C\": 1}, \"71\": {\"C\": 1}, \"72\": {\"C\": 1}, \"73\": {\"C\": 1}, \"74\": {\"C\": 1}, \"75\": {\"C\": 1}, \"76\": {\"C\": 1}, \"77\": {\"C\": 1}, \"78\": {\"C\": 1}, \"79\": {\"C\": 1}, \"80\": {\"C\": 1}, \"81\": {\"C\": 1}, \"82\": {\"C\": 1}, \"83\": {\"C\": 1}, \"84\": {\"C\": 1}, \"85\": {\"C\": 1}, \"86\": {\"C\": 1}, \"87\": {\"C\": 1}, \"88\": {\"C\": 1}, \"89\": {\"C\": 1}, \"90\": {\"C\": 1}, \"91\": {\"C\": 1}, \"92\": {\"O\": 1}, \"93\": {\"O\": 1}, \"94\": {\"O\": 1}, \"95\": {\"O\": 1}, \"96\": {\"O\": 1}, \"97\": {\"O\": 1}, \"98\": {\"O\": 1}, \"99\": {\"O\": 1}, \"100\": {\"F\": 1}, \"101\": {\"F\": 1}, \"102\": {\"F\": 1}, \"103\": {\"F\": 1}, \"104\": {\"F\": 1}, \"105\": {\"F\": 1}, \"106\": {\"F\": 1}, \"107\": {\"F\": 1}}" energy=-646.4398193359375 free_energy=-646.4398193359375 stress="0.00048023482668213546 0.0008111054776236415 0.0013928140979260206 0.0008111054776236415 -0.004357214085757732 -0.00015784395509399474 0.0013928140979260206 -0.00015784395509399474 -0.0011928875464946032" pbc="T T T"
Sn       3.79279016       4.56618915      13.30594339        0       0.31255335      -0.26366165      -0.48245031
Sn       9.68882351       9.12418266      14.18718971        1       0.25778711       0.13282971      -0.34254184
Sn       9.64049075       5.85562809       5.03547158        2      -0.58641922       0.72337759      -0.31129363
Sn       3.74066403       1.31871526       4.14028051        3      -0.83425832      -0.83848286      -0.23881117
H        4.76045662       9.30596523      10.43642846        4      -0.22851993       0.37712103      -0.02269752
H        4.83059984       9.36849561      17.04339065        5       0.27510446      -0.89583641       0.13442744
H        8.65283147       1.09038510       7.85787616        6      -0.96323276       0.91984034       0.34642622
H        8.57580296       1.10728930       1.28806427        7       0.42274916      -1.11237597       0.20834059
H        6.52559006       6.09301547       8.11523584        8      -0.03459004       0.77962625       0.83603477
H        4.26957459       4.40271836       1.03238404        9      -0.04677859       0.01547577      -0.25885493
H        6.91072794       4.35019904      10.18042600       10      -0.14114669      -0.56493551      -0.71015614
H        9.12738394       6.08127631      17.29672810       11       0.32275912      -0.13671994       0.23578514
H        8.86564790       8.10969919      11.11814024       12       0.35950792       0.22135250       0.26842213
H        4.96221659       5.07334870      16.34381812       13      -0.33660474      -0.76232088      -0.39227146
H        4.50701715       2.29232284       7.18337739       14       0.88095295       0.23772648       0.64483625
H        8.45727236       5.36693075       1.92336481       15       0.28213927       0.47978526       0.35902995
H        9.52337509       5.73523456      12.91190651       16       0.17925049      -0.26321185      -0.13503693
H        7.14186463       3.87208062      14.50765195       17      -0.02347116      -0.13489324       0.04433579
H        3.88647306       4.69439831       5.38066857       18       0.45480460      -0.31601775      -0.43516773
H        6.27706267       6.58440241       3.76752835       19       0.72624481      -1.29492879       1.09320223
H        9.62378052       4.19312058      11.94331820       20       0.41894189       0.54950619       0.18453778
H        8.56512867       3.41475860      15.47030340       21       0.39176846      -0.01889008       0.15801552
H        3.75912444       6.24462211       6.32952628       22      -0.29195911      -0.71011949      -0.32900861
H        4.82828518       7.02678530       2.80843536       23       0.44479239       0.13427700       0.23529778
H       10.40690330       5.70296243      11.35252100       24       0.08567745      -0.24661970       0.11650794
H        6.96950075       2.97128063      16.05455452       25      -0.30535489      -0.01461917       0.55180413
H        3.01825024       4.76051688       6.94286641       26      -0.03396691       0.06088309      -0.18514508
H        6.44637896       7.45519349       2.21933874       27      -0.02506988      -0.06823699       0.11630782
H        4.64457195       3.03229392      15.37696311       28       0.16128133      -0.18479452       0.03265446
H       10.96157780       7.93673000      12.08011932       29       0.10881810       0.76614827       0.35549554
H        8.80690742       7.45837053       2.91334854       30      -0.08769708      -0.13365008       0.17779137
H        2.45369211       2.46244378       6.20763948       31      -0.09457081       0.34777656       0.10244735
H        3.13335891       2.33209191      14.66767036       32       0.25880897       0.00948907      -0.01002064
H       12.03613634       9.21589111      12.78276577       33      -0.09013944      -0.07591577       0.04462368
H       10.24026525       8.15337304       3.64625013       34       0.04812984      -0.19140251       0.10390113
H        1.37670861       1.20181535       5.51489843       35       0.62961620       0.19386263       0.11785810
H       11.19240066       3.71968212      15.72768056       36      -0.26543650       0.30680889       0.50206316
H        8.69080042       1.77115628      11.69693363       37      -0.07648446       0.02376751       0.05771080
H        2.22314691       6.75116249       2.57403906       38       0.51272357      -0.36093453      -0.49412447
H        4.73972753       8.65174181       6.62172834       39      -0.09677443       0.32158238      -0.43826267
H        5.96696268       6.09159352      13.70735548       40      -0.16636321      -0.19652155      -0.52469432
H        7.65020416       7.37021434      13.74969434       41      -0.19358146       0.07498404      -0.32866067
H        7.42122863       4.33020502       4.59777210       42       0.42111120       0.72460097       0.86990935
H        5.73615078       3.01510955       4.52421906       43       0.10468088      -0.05300504       0.16659977
H        5.41113543       6.30933952      11.99373381       44       0.12212472      -0.12561181       0.07410723
H        7.61157275       8.00437478      15.42026019       45      -0.22080404      -0.01304069       0.21176624
H        7.96161657       4.16311624       6.27048932       46       0.14877544      -0.50013065       0.73210526
H        5.80679921       2.46061025       2.83646397       47      -0.15713921      -0.09136981       0.16464940
H        6.37326189       4.84389121      12.46016947       48       0.16288495      -0.27717814      -0.22392590
H        8.81716305       6.71194769      14.96829517       49      -0.50400162       0.82093322      -0.18129034
H        7.06536539       5.62151990       5.83773013       50      -0.51922184       0.62507427       0.28752375
H        4.64030542       3.68144031       3.31241473       51      -0.49736738       0.52273595      -0.23081188
C        4.97142623       2.06469474      11.85318348       52      -0.43088594      -0.40865240       0.30367815
C       11.82156671       7.37005758      15.55693622       53       0.16985191       0.43690938      -0.30514652
C        8.43439714       8.37298495       6.41647461       54       1.09054863       0.70721769       0.37914801
C        1.55671718       3.08007532       2.75039760       55       0.25800979      -1.80045366      -0.55989623
C        6.85407935       8.81641861      10.86670104       56      -1.83356822       1.82756305       0.17732970
C        4.81949179       7.24043769      16.56211232       57      -1.55464983      -1.77059078      -1.24307561
C        6.58263701       1.56783492       7.40727842       58      -1.57179618       1.63044453       0.87073934
C        8.59428185       3.18236053       1.72703709       59       1.06328666       2.16545343       1.16372204
C        5.60930640       8.69819437      10.18778912       60       1.16915846      -1.24330175       0.14122176
C        5.24586125       8.34903447      17.24167625       61      -0.12773597       1.94672799       0.21626307
C        7.78039887       1.78610795       8.07423077       62       1.60459077      -1.78955460      -0.66287667
C        8.15777968       2.05312220       1.08820322       63      -0.99458069       0.33734080      -0.89829153
C        5.51108304       7.64093788       9.26041351       64      -1.26288414       1.59241354       0.43349242
C        6.22939662       8.19374421      18.19931094       65      -0.01675621       2.00829268      -0.41070819
C        7.90061601       2.78041136       9.02556937       66      -1.54124856       0.64525926      -0.13458467
C        7.16566483       2.23708978       0.13153907       67      -0.21668556      -1.48077869      -0.56846237
C        6.57312356       6.87586733       8.92547448       68       2.07933617      -1.83192468      -0.77300847
C        3.54202482       4.49568415       0.21818701       69       0.69465488      -1.58304346       1.01951170
C        6.81673467       3.58798758       9.36782730       70       0.20501161       0.36961323       0.62326163
C        9.91180847       5.97283457      18.06182603       71      -0.94207907       0.00164403      -0.53400981
C        7.80916850       7.04293558       9.63493997       72      -1.90130818      -0.53261465      -1.49915743
C        6.32070940       5.89144224      17.86035603       73      -1.59207928      -0.35647178      -1.68902135
C        5.60869577       3.38581161       8.68130916       74       0.75614703       1.72828102       1.79434490
C        7.09554117       4.55874952       0.45798129       75       1.47095227      -0.44062084       0.97805035
C        7.92947899       8.00432717      10.60214519       76       0.99543619      -0.54006201       0.12327868
C        5.31255483       5.94337434      16.83317977       77       1.71555281       1.85089672       1.78943503
C        5.47412989       2.45450622       7.73431361       78      -0.52091455      -2.92672372      -2.91891193
C        8.09942480       4.48777337       1.43795971       79      -0.73891914      -1.74918103      -0.59493715
C       10.16726727       5.11986426      12.25554078       80      -0.63234162      -0.12590651      -0.12464672
C        7.56976807       3.11102499      15.17271333       81      -0.04443846       0.05409439      -0.65671891
C        3.25396221       5.29160991       6.00710757       82       0.33415762       0.94026756       1.27522039
C        5.85725309       7.29605799       3.13335505       83      -1.21239579       1.69915605      -1.31012654
C        3.65561902       3.25009921      14.98038850       84      -0.28332818      -0.28919542      -0.38722134
C       11.00191844       8.98539468      12.48778043       85       0.08003637      -0.68442464      -0.44801143
C        9.78165265       7.19725223       3.34599067       86      -0.34381160       0.56594425       0.34430069
C        2.42528811       1.45043059       5.81769779       87      -0.54901403      -0.84977835       0.32296377
C        5.63357256       5.56910076      12.77742082       88      -0.43016514       0.52842206       0.66306782
C        8.24257934       7.62357946      14.62052156       89       0.89109045      -0.87149179       0.56783462
C        7.78963603       4.90352470       5.51627524       90       0.02660725      -0.88989908      -1.73368955
C        5.12965365       2.78435428       3.64622854       91       1.04806352       0.11911258      -0.35573530
O        3.96327459       2.89436361      11.85262980       92       0.60911381      -0.44676191      -0.13660207
O       11.25471922       8.55233885      15.54436885       93       0.61016452      -0.91929626       0.36854464
O        9.45855340       7.58022921       6.42754508       94      -0.32780471      -0.39849776      -0.24023759
O        2.16635494       1.91048282       2.75252162       95      -0.71994001       0.63867426      -0.29657826
O        5.97218247       2.14362913      12.62163653       96      -0.42124569       0.31681305      -0.51794851
O       11.46360569       6.40792400      14.80435810       97       0.08550784       0.92447352       0.91146541
O        7.44093660       8.32168573       5.66218009       98      -0.15944265      -0.60327137      -0.00094151
O        1.90505549       4.01934984       3.48540364       99       0.17810979       0.53745770       0.14210626
F        4.30587454       7.48059841       8.60489656      100       0.37598082      -0.08341502       0.21587688
F        3.46186079       6.81519772       0.49820610      101      -0.15594299      -0.05567226       0.09614824
F        9.05786356       2.97350459       9.65481643      102       1.14565229       0.00926007       0.45157877
F        9.92314349       3.63194840      17.76501762      103       0.36304396       0.52101910       0.43161359
F        8.83241126       6.23169631       9.26255932      104       0.27346888       0.14208436       0.25171784
F        6.78628677       4.67019776      18.18683193      105       0.36678037      -0.51199669       0.27475083
F        4.56465005       4.20965673       9.01156008      106      -0.13755594      -0.18062538      -0.12320299
F        6.59469897       5.74548583       0.15913802      107      -0.66983104       1.59523058      -0.46620935
108
Lattice="8.15666594 0.0 0.0 2.011371067930143 7.913819327190378 0.0 3.2519398514805635 2.517033393030921 18.30075516644922" Properties=species:S:1:pos:R:3:spacegroup_kinds:I:1:forces:R:3 spacegroup="P 1" unit_cell=conventional occupancy="_JSON {\"0\": {\"Sn\": 1}, \"1\": {\"Sn\": 1}, \"2\": {\"Sn\": 1}, \"3\": {\"Sn\": 1}, \"4\": {\"H\": 1}, \"5\": {\"H\": 1}, \"6\": {\"H\": 1}, \"7\": {\"H\": 1}, \"8\": {\"H\": 1}, \"9\": {\"H\": 1}, \"10\": {\"H\": 1}, \"11\": {\"H\": 1}, \"12\": {\"H\": 1}, \"13\": {\"H\": 1}, \"14\": {\"H\": 1}, \"15\": {\"H\": 1}, \"16\": {\"H\": 1}, \"17\": {\"H\": 1}, \"18\": {\"H\": 1}, \"19\": {\"H\": 1}, \"20\": {\"H\": 1}, \"21\": {\"H\": 1}, \"22\": {\"H\": 1}, \"23\": {\"H\": 1}, \"24\": {\"H\": 1}, \"25\": {\"H\": 1}, \"26\": {\"H\": 1}, \"27\": {\"H\": 1}, \"28\": {\"H\": 1}, \"29\": {\"H\": 1}, \"30\": {\"H\": 1}, \"31\": {\"H\": 1}, \"32\": {\"H\": 1}, \"33\": {\"H\": 1}, \"34\": {\"H\": 1}, \"35\": {\"H\": 1}, \"36\": {\"H\": 1}, \"37\": {\"H\": 1}, \"38\": {\"H\": 1}, \"39\": {\"H\": 1}, \"40\": {\"H\": 1}, \"41\": {\"H\": 1}, \"42\": {\"H\": 1}, \"43\": {\"H\": 1}, \"44\": {\"H\": 1}, \"45\": {\"H\": 1}, \"46\": {\"H\": 1}, \"47\": {\"H\": 1}, \"48\": {\"H\": 1}, \"49\": {\"H\": 1}, \"50\": {\"H\": 1}, \"51\": {\"H\": 1}, \"52\": {\"C\": 1}, \"53\": {\"C\": 1}, \"54\": {\"C\": 1}, \"55\": {\"C\": 1}, \"56\": {\"C\": 1}, \"57\": {\"C\": 1}, \"58\": {\"C\": 1}, \"59\": {\"C\": 1}, \"60\": {\"C\": 1}, \"61\": {\"C\": 1}, \"62\": {\"C\": 1}, \"63\": {\"C\": 1}, \"64\": {\"C\": 1}, \"65\": {\"C\": 1}, \"66\": {\"C\": 1}, \"67\": {\"C\": 1}, \"68\": {\"C\": 1}, \"69\": {\"C\": 1}, \"70\": {\"C\": 1}, \"71\": {\"C\": 1}, \"72\": {\"C\": 1}, \"73\": {\"C\": 1}, \"74\": {\"C\": 1}, \"75\": {\"C\": 1}, \"76\": {\"C\": 1}, \"77\": {\"C\": 1}, \"78\": {\"C\": 1}, \"79\": {\"C\": 1}, \"80\": {\"C\": 1}, \"81\": {\"C\": 1}, \"82\": {\"C\": 1}, \"83\": {\"C\": 1}, \"84\": {\"C\": 1}, \"85\": {\"C\": 1}, \"86\": {\"C\": 1}, \"87\": {\"C\": 1}, \"88\": {\"C\": 1}, \"89\": {\"C\": 1}, \"90\": {\"C\": 1}, \"91\": {\"C\": 1}, \"92\": {\"O\": 1}, \"93\": {\"O\": 1}, \"94\": {\"O\": 1}, \"95\": {\"O\": 1}, \"96\": {\"O\": 1}, \"97\": {\"O\": 1}, \"98\": {\"O\": 1}, \"99\": {\"O\": 1}, \"100\": {\"F\": 1}, \"101\": {\"F\": 1}, \"102\": {\"F\": 1}, \"103\": {\"F\": 1}, \"104\": {\"F\": 1}, \"105\": {\"F\": 1}, \"106\": {\"F\": 1}, \"107\": {\"F\": 1}}" energy=-645.5328369140625 free_energy=-645.5328369140625 stress="0.00021991637186147273 -7.99954796093516e-05 0.0002641584724187851 -7.99954796093516e-05 -0.009781342931091785 -0.0013332392554730177 0.0002641584724187851 -0.0013332392554730177 -0.0022894199937582016" pbc="T T T"
Sn       3.81613407       4.56991534      13.27793775        0       0.00082065      -0.55437976      -0.12191310
Sn       9.70058577       9.11785278      14.17136460        1       0.27288795       0.17636727      -0.23796411
Sn       9.63603694       5.84829570       5.02909923        2      -0.22944996       0.65295684      -0.11098950
Sn       3.75996676       1.32070247       4.12391332        3      -1.23217320      -1.00746322       0.06270180
H        4.74939430       9.28649934      10.45544247        4      -0.12964943       0.27281377      -0.13997677
H        4.84559967       9.36006927      17.02798337        5       0.13658889      -0.72849065       0.07488187
H        8.68157987       1.06690480       7.83038279        6      -1.39669299       1.19236362       0.40235922
H        8.59348633       1.12988406       1.25940533        7       0.50602615      -1.14145958       0.34895435
H        6.54763624       6.07947953       8.11670441        8       0.00489002       0.45107090       0.47053078
H        4.28928884       4.39267915       1.02347579        9      -0.02804057       0.00288113      -0.13352254
H        6.90027426       4.34906992      10.20123674       10      -0.04993168      -0.65534109      -0.90303922
H        9.15504895       6.05670973      17.29640025       11       0.39091209       0.03534301       0.32600090
H        8.88238580       8.11820955      11.13534977       12      -0.67055428       0.14389865      -0.30824310
H        4.97418407       5.07552724      16.34814609       13      -0.87958801      -2.18241239      -1.18357730
H        4.53134912       2.29351468       7.15865269       14       0.85226691       0.14737394       0.66872084
H        8.48390883       5.34639981       1.95207798       15       0.32429656       0.95250231       0.45532954
H        9.53456023       5.71754389      12.91250782       16       0.25088835      -0.15748066      -0.25683933
H        7.12725996       3.88439111      14.52208228       17       0.02081656      -0.04168798      -0.16160677
H        3.88936794       4.68929948       5.38907360       18       0.51315749      -0.31976077      -0.57560503
H        6.27139837       6.56576532       3.74148681       19       0.78282201      -1.34126496       1.19767797
H        9.64545907       4.18918189      11.92697706       20       0.62586898       0.87632370       0.23734526
H        8.58950606       3.39054384      15.44439981       21      -0.08985340      -0.06346877      -0.02565648
H        3.78828083       6.24037634       6.33174479       22      -0.35548374      -0.65642387      -0.33423814
H        4.83144034       7.03395971       2.83705296       23      -0.44508564      -0.08762382      -0.10327621
H       10.43303087       5.70397114      11.33456718       24       0.07870591      -0.01213212      -0.10344872
H        6.99101600       2.99512828      16.04305371       25      -0.43560585      -0.16021404       0.80620205
H        3.04289325       4.73786970       6.94804880       26       0.00237001       0.45882124      -0.63150036
H        6.44433129       7.45103064       2.19849669       27      -0.52258962      -0.17005610       0.71914113
H        4.63988373       3.03800192      15.38963377       28       0.89140630      -0.41923803       0.25587219
H       10.98300806       7.91152764      12.05041034       29       0.00406228       1.33869886       0.57215846
H        8.83479917       7.46883929       2.93123491       30      -0.04802250      -0.25278249       0.20880163
H        2.42673151       2.46912420       6.19392255       31       0.01131312       1.36338282       0.55114663
H        3.15955635       2.34658848      14.64723834       32      -0.17683023      -1.02721691      -0.35831961
H       12.05895422       9.21256471      12.76000409       33      -0.85928476      -0.18330507      -0.12534657
H       10.25068375       8.13348901       3.63188813       34       0.34461617       0.25558963       0.38011834
H        1.39994156       1.19472956       5.53092062       35       0.83918434       0.32881153       0.04716252
H       11.18426265       3.70507222      15.71581622       36       0.31542125      -0.08234271      -0.23763676
H        8.70350746       1.75933371      11.67178540       37      -0.22175053       0.24087308      -0.17244446
H        2.23652356       6.75860745       2.57151875       38       0.53265321      -0.48228613      -0.51386809
H        4.71883520       8.65678530       6.63757266       39       0.13615531       0.54536384      -0.46376836
H        5.95102331       6.08364269      13.72453898       40      -0.27942920      -0.35959125      -0.92440534
H        7.63707248       7.34790185      13.75507370       41      -0.02331544       0.21692604      -0.16848469
H        7.44895466       4.34746931       4.60008721       42       0.14491233       0.31059301       0.23165505
H        5.72679899       2.99345514       4.50595054       43       0.49940303       0.04538064       0.72619081
H        5.41100153       6.32798156      11.98211964       44       0.26815578      -0.56005400       0.49250245
H        7.62348183       7.97722104      15.42635867       45      -0.24727710       0.11985411       0.24720834
H        7.95190846       4.14979501       6.24548628       46       0.30566660      -0.91370475       1.09928954
H        5.81755914       2.47559829       2.85276576       47       0.54600692      -0.48545700      -0.69081080
H        6.39271405       4.86770785      12.46611256       48       0.45610660      -0.58241010      -0.40467614
H        8.83279772       6.69680165      14.96520983       49      -0.72532427       1.33432686      -0.39088640
H        7.08047327       5.60263845       5.84319439       50      -0.33727905       0.48790812       0.16270927
H        4.66810256       3.67119896       3.31567885       51      -0.54066682       0.47224051      -0.25129756
C        4.99358611       2.05366070      11.85629168       52      -1.60141349      -0.15019140      -0.30038357
C       11.82812682       7.37306611      15.55040452       53       0.16655518       0.34467328      -0.08999942
C        8.44408545       8.39644169       6.40316139       54       0.79851294       0.24703470       0.08807379
C        1.55783139       3.08269892       2.74128517       55       0.18037885      -1.54976392      -0.51794881
C        6.85577904       8.80540988      10.85086543       56      -2.82447696       2.42771435       0.26016656
C        4.80220123       7.22179300      16.54582663       57      -0.69961464      -0.86404932      -0.38642058
C        6.58080032       1.58726061       7.39238968       58      -0.18156123       0.79872715       0.92655444
C        8.61938774       3.19805663       1.72845486       59       0.30763507       2.27631187       0.80552244
C        5.59445040       8.68563822      10.15922815       60       1.80989981      -0.41234690       1.14955604
C        5.24675373       8.34565146      17.24024827       61      -0.10441619       1.09731317       0.10695824
C        7.79345751       1.77078737       8.05656587       62       1.60689855      -1.25697351      -0.05642291
C        8.16611467       2.07688940       1.09132528       63      -0.84561908      -0.34486914      -1.19753385
C        5.49624924       7.65170042       9.23585732       64       1.69601607       0.18265620       0.52688098
C        6.23111243       8.21819013      18.22171643       65      -0.41381615       0.48619479      -1.19697607
C        7.92623569       2.75627370       9.05331924       66      -3.11664391       0.41758287      -1.52817237
C        7.19002899       2.22282406       0.11310234       67      -0.30290174      -1.09544241      -0.31418547
C        6.59531298       6.85920115       8.90148297       68       1.10285234       0.03101920       0.73280478
C        3.53880014       4.50655444       0.23897958       69      -0.00757740      -1.99047232       0.08272323
C        6.84140443       3.59351983       9.37047356       70      -0.87663478      -0.30881172       0.17039138
C        9.93612619       5.97120301      18.07464064       71      -1.42139792      -0.85429156      -1.17298818
C        7.83641321       7.05308609       9.65072655       72      -3.84732437      -1.36765778      -3.34031057
C        6.30310511       5.89682077      17.84616806       73      -1.39625454       0.66925836      -1.30506408
C        5.58999618       3.35918442       8.67248997       74       1.97643518       3.09500360       3.19837546
C        7.09542243       4.54715288       0.47597862       75       1.75262785       0.24574219       1.10241103
C        7.92023070       8.00755692      10.58593821       76       2.92918777       0.15887654       1.74924886
C        5.29928719       5.92302384      16.81058826       77       2.27990818       3.74214983       2.77828169
C        5.48914177       2.43757283       7.73357455       78      -1.63852465      -2.51059651      -3.31264186
C        8.10685585       4.49937114       1.45003338       79      -0.75666070      -2.34068346      -0.69104236
C       10.18938609       5.13690553      12.23324994       80      -0.90712553      -0.80150568       0.17316969
C        7.56835770       3.10916704      15.15192841       81       0.60550106       0.09768566      -0.53614074
C        3.26332844       5.30255040       6.00248140       82       0.18038861       0.50256932       1.78476524
C        5.83749853       7.28897050       3.13496289       83       0.10728967       2.08753514      -1.70942616
C        3.68433099       3.22087208      14.95748674       84      -1.16245592       1.55571282       0.28616375
C       10.99258171       8.98545226      12.46489493       85       1.13848829      -1.35744810      -0.23244192
C        9.80704824       7.17996407       3.36390511       86      -0.73561990       0.50753254      -0.12048936
C        2.45189335       1.47981487       5.83388896       87      -0.95395643      -2.24888277      -0.32129371
C        5.63262019       5.55755770      12.76801724       88      -0.43185177       1.64428568       0.76405406
C        8.25186454       7.63622974      14.60972395       89       0.91822767      -1.72496092       0.60384858
C        7.81014519       4.88641635       5.50304199       90      -0.25092947      -0.00174430      -1.31733656
C        5.14834422       2.76159023       3.63364865       91       0.19606803       0.69771802      -0.10195229
O        3.96550623       2.90119315      11.87606989       92       1.20756090      -1.10773444      -0.30071485
O       11.25696953       8.53257834      15.53789375       93       0.29107770       0.25734562       0.46368498
O        9.46345603       7.58219724       6.43580464       94      -0.79403561      -0.08571520      -0.42102432
O        2.14469923       1.92814972       2.74572164       95      -0.12993707      -0.43701208      -0.26712438
O        5.99575881       2.13134269      12.59668272       96      -0.00732173       0.38015577      -0.18881628
O       11.45363698       6.43492255      14.80307187       97      -0.01350391      -0.20225999       0.17957312
O        7.43705828       8.34330288       5.64899432       98       0.44354558      -0.63937402       0.30484104
O        1.91799919       4.00370653       3.48382552       99       0.27887249       1.25674653       0.58770937
F        4.33507784       7.47797683       8.62908371      100      -1.51469231      -0.40140602      -0.88730848
F        3.47860144       6.81124816       0.48881172      101       0.06864098       0.84843713       0.47184706
F        9.07007595       2.94979482       9.63942418      102       2.28457880       0.15644589       1.12651622
F        9.95163874       3.60543846      17.73550129      103       0.58675838       1.00750744       0.71148646
F        8.81452967       6.25151092       9.24665029      104       1.54467750      -0.47770950       0.26705885
F        6.76995931       4.68997553      18.15835402      105       0.68622088      -1.17960191       0.50097507
F        4.55359796       4.23137857       9.00278041      106       0.39584601      -0.86281455      -0.38724145