84
Lattice="9.27927581 0.0 0.0 0.08088892040902286 9.79941189823161 0.0 1.4137832588921204 3.758575243853041 10.515737712785201" Properties=species:S:1:pos:R:3:spacegroup_kinds:I:1:forces:R:3 spacegroup="P 1" unit_cell=conventional occupancy="_JSON {\"0\": {\"Cu\": 1}, \"1\": {\"Cu\": 1}, \"2\": {\"Cu\": 1}, \"3\": {\"Cu\": 1}, \"4\": {\"H\": 1}, \"5\": {\"H\": 1}, \"6\": {\"H\": 1}, \"7\": {\"H\": 1}, \"8\": {\"H\": 1}, \"9\": {\"H\": 1}, \"10\": {\"H\": 1}, \"11\": {\"H\": 1}, \"12\": {\"H\": 1}, \"13\": {\"H\": 1}, \"14\": {\"H\": 1}, \"15\": {\"H\": 1}, \"16\": {\"H\": 1}, \"17\": {\"H\": 1}, \"18\": {\"H\": 1}, \"19\": {\"H\": 1}, \"20\": {\"H\": 1}, \"21\": {\"H\": 1}, \"22\": {\"H\": 1}, \"23\": {\"H\": 1}, \"24\": {\"H\": 1}, \"25\": {\"H\": 1}, \"26\": {\"H\": 1}, \"27\": {\"H\": 1}, \"28\": {\"H\": 1}, \"29\": {\"H\": 1}, \"30\": {\"H\": 1}, \"31\": {\"H\": 1}, \"32\": {\"C\": 1}, \"33\": {\"C\": 1}, \"34\": {\"C\": 1}, \"35\": {\"C\": 1}, \"36\": {\"C\": 1}, \"37\": {\"C\": 1}, \"38\": {\"C\": 1}, \"39\": {\"C\": 1}, \"40\": {\"C\": 1}, \"41\": {\"C\": 1}, \"42\": {\"C\": 1}, \"43\": {\"C\": 1}, \"44\": {\"C\": 1}, \"45\": {\"C\": 1}, \"46\": {\"C\": 1}, \"47\": {\"C\": 1}, \"48\": {\"C\": 1}, \"49\": {\"C\": 1}, \"50\": {\"C\": 1}, \"51\": {\"C\": 1}, \"52\": {\"C\": 1}, \"53\": {\"C\": 1}, \"54\": {\"C\": 1}, \"55\": {\"C\": 1}, \"56\": {\"C\": 1}, \"57\": {\"C\": 1}, \"58\": {\"C\": 1}, \"59\": {\"C\": 1}, \"60\": {\"C\": 1}, \"61\": {\"C\": 1}, \"62\": {\"C\": 1}, \"63\": {\"C\": 1}, \"64\": {\"C\": 1}, \"65\": {\"C\": 1}, \"66\": {\"C\": 1}, \"67\": {\"C\": 1}, \"68\": {\"C\": 1}, \"69\": {\"C\": 1}, \"70\": {\"C\": 1}, \"71\": {\"C\": 1}, \"72\": {\"I\": 1}, \"73\": {\"I\": 1}, \"74\": {\"I\": 1}, \"75\": {\"I\": 1}, \"76\": {\"N\": 1}, \"77\": {\"N\": 1}, \"78\": {\"N\": 1}, \"79\": {\"N\": 1}, \"80\": {\"N\": 1}, \"81\": {\"N\": 1}, \"82\": {\"N\": 1}, \"83\": {\"N\": 1}}" energy=-555.2341918945312 free_energy=-555.2341918945312 stress="-0.0023662473540753126 -0.001346491277217865 0.0013536643236875534 -0.001346491277217865 -0.0004250094061717391 -0.0017250936944037676 0.0013536643236875534 -0.0017250936944037676 -0.003989450633525848" pbc="T T T"
Cu       2.55912735       3.25466432       2.72325247        0      -0.01055890      -0.37136352       0.04198167
Cu       8.18837742      10.34714397       7.82429318        1       0.06937046       0.24223508      -0.27546972
Cu       3.18022505       4.90229417       0.75836303        2      -0.10759471      -0.48115289       0.19088829
Cu       7.59762283       8.62740134       9.73937003        3       0.15566312       0.42918906      -0.10245775
H        9.03254860       4.94498433       6.69824036        4      -0.01764297       0.25528148      -0.79501319
H        1.73183777       8.56380141       3.85913052        5      -0.17671731       0.02329766       0.27207816
H        4.85430495       9.10980945       5.30271116        6      -0.24991465       0.35352099      -0.01258366
H        5.90907116       4.41489531       5.18843023        7       0.20501399       0.07416061      -0.56255674
H        5.75002638       8.86289873       1.14790808        8      -0.14747004       0.37873340      -0.05248442
H        5.02727697       4.68599934       9.40177010        9       0.35163474      -0.51135284      -0.79401523
H        5.93462805       7.92261828       3.42617267       10      -0.04272602       0.06779590      -0.04565320
H        4.84040210       5.60953801       7.09444633       11      -0.08439361       0.22851695      -0.15741524
H        4.27039057      10.49302650       6.76784708       12       0.59266424      -0.51514477       0.31242785
H        6.50220167       3.01891763       3.73120218       13      -0.33620289       0.21865007      -0.15587012
H        2.41051874       4.00331903       9.44735479       14      -0.15176092       0.89984435      -0.35120338
H        8.36140619       9.51049709       1.09122052       15      -0.34746012       1.17622662      -0.18064864
H        3.64654371       9.75392925       8.68235096       16       0.19707000      -1.13672864      -0.70894521
H        7.11219268       3.86006691       1.81335160       17      -0.06954886       0.21840201       0.31818181
H        1.29897708       3.81763800       7.56430409       18       0.02976720      -0.00025697       0.12845457
H        9.48213829       9.74094190       2.95253784       19      -0.06023827       0.27426481       0.31174284
H        4.43158778       1.26521234       0.79264396       20       0.32109207      -0.74991208       1.20196080
H        6.32431246      12.25344183       9.68731779       21      -0.27681774       0.86674011      -0.64035070
H        7.97376110       6.87488339       2.97579640       22      -0.95577633       1.10401726      -0.92594951
H        2.81689796       6.71268799       7.54493937       23       0.66268331      -0.76176465       0.54040039
H        0.35869441       5.45909321       1.80504070       24       0.04000474      -0.05948543       0.03739299
H       10.42023005       8.11562172       8.69341517       25      -0.20983389      -0.12360218       0.96590739
H        7.67244275       6.63018913       5.44674593       26      -1.09340930       0.96609992       0.68274295
H        3.11051430       6.89010369       5.03009103       27      -0.67967206       0.78947496       0.69865668
H        1.74775087       9.74585724       1.29310313       28       0.06145535      -0.41461474      -0.11730944
H        9.00607521       3.81475471       9.22819442       29       0.06320393       0.07101902      -0.05552137
H        2.74082655       7.46997176       1.96450168       30       0.31079119       0.01593489       0.99455881
H        8.01926350       6.07262642       8.57359677       31      -0.36870131       0.07022169      -0.98156142
C        9.15968462       5.11310008       5.60451882       32       0.03086908       0.21272197       0.03858494
C        1.57179832       8.43749357       4.93750530       33       0.85288632      -0.13576856      -0.98126233
C        2.84485136      11.98193340       7.37656314       34      -0.81785059       0.71700680       1.48966980
C        7.94987378       1.58443531       3.09824695       35       1.07672143      -1.21402574       0.91113412
C        3.36191420      11.43733797       5.11341106       36      -0.36626992       0.68270999      -1.30336630
C        7.43735916       2.10844764       5.43060450       37      -0.73770589       0.21413723      -0.42482004
C        4.06992317      10.71883889       4.05594772       38      -0.54182315       0.92300570      -0.32405093
C        6.67007574       2.84867850       6.47166370       39       1.34797120      -1.47253537      -0.66526186
C        4.75013066       9.56291625       4.31220405       40       1.78266561      -2.35971761      -1.06313825
C        6.02393483       4.02662864       6.18106891       41      -1.14657497       0.80336660       1.28314257
C        5.29082203       9.40028775       1.98402188       42       0.73555678      -1.12864828      -0.89128554
C        5.48356995       4.15701501       8.52595071       43      -0.77422690       1.68713093       0.79138005
C        5.39005890       8.84468933       3.22368674       44      -0.83466113       1.05019164       2.35746956
C        5.40534541       4.70097037       7.25125292       45       0.05637433      -0.45010376      -0.35750785
C        1.74850781       3.34956897       5.52876455       46      -0.68120062       0.68596625      -0.23935583
C        9.05918608      10.23313524       4.98741446       47       0.73347884      -0.87797523       1.12162971
C        3.55757115      11.22259237       6.46267201       48      -0.44077730       0.26902846      -0.02694006
C        7.24595433       2.29792539       4.02888156       49      -0.35261059       0.77181196       1.64860106
C        3.02895681      11.78590156       8.86121134       50       0.52264714       0.23641542      -0.51329607
C        7.69667569       1.77250026       1.68494646       51       0.46547806      -0.39110652      -0.62249660
C        2.89369106      12.87357828       9.76367038       52       0.04523361      -2.02281857       0.32127514
C        7.92474112       0.73323590       0.76889220       53      -0.22462681      -0.86386818      -0.93077767
C        3.54607892      10.56342248       9.34382682       54      -0.51746142       1.73673308       0.73656446
C        7.20366582       2.98691937       1.19089746       55       0.33477712      -0.32778186      -0.05817083
C        0.86808032       4.34965558       4.91365363       56      -1.19106829       0.98725140       0.08700104
C        9.93765847       9.21233408       5.60306771       57      -1.21615624       0.40138337       1.47351491
C        1.88059397       3.18732338       6.89956077       58       0.54293764      -0.83459055       0.33516833
C        8.93834115      10.40588070       3.64060209       59      -0.49369752       0.41691428      -2.21720743
C        4.53409218       0.78488767       1.81996252       60      -0.78606927       1.43937278      -2.35798144
C        6.24458620      12.78822083       8.70373696       61       0.29210740      -1.64134789       2.11450481
C        8.52438950       6.16856038       3.51092135       62       0.84940946      -0.67024547       1.36141431
C        2.24583703       7.39192982       6.97089581       63      -1.75889516       1.36260939       1.02932310
C        9.48407704       5.39454214       2.87916851       64       0.42470950      -0.65435499       0.99197137
C        1.24404031       8.18037021       7.64063693       65       0.81837392      -0.05317000      -2.18854833
C        8.36776008       6.06860232       4.90204733       66       1.93720794      -2.17691278      -0.26799116
C        2.39572347       7.54133643       5.62283969       67       0.59509039      -1.00838995      -1.45146525
C        1.81025449       8.90514305       0.58624677       68       0.92224801      -0.62039173       0.29927957
C        8.96816539       4.65453506       9.91791237       69      -0.48165649       0.74407893       1.21066999
C        2.39457111       7.66374567       0.98257140       70      -1.06510115       0.95135075      -1.58681059
C        8.37751698       5.87726278       9.55083924       71       0.98369884      -0.70834517       1.17493188
I        1.71758471       2.92475175       0.17956311       72       0.19567546       0.19864489      -0.03475949
I        9.01083842      10.65009380      10.30399308       73      -0.13645780      -0.19241354       0.16796564
I        4.64631877       5.15978861       2.79558089       74       0.08387239       0.17595896       0.08539435
I        6.12136195       8.37492420       7.72296104       75      -0.12367575      -0.15845039      -0.11256601
N        3.89856562       1.43564681       2.77547410       76      -0.27906021       0.01286906       1.38167429
N        6.82900494      12.11943926       7.73439037       77       0.66778362      -0.07404652      -1.62237215
N        2.43161948       2.60600695       4.65130510       78       0.72827029      -0.54742360       0.06045648
N        8.34642699      10.95788201       5.87807598       79      -0.15490879       0.17345276       0.23376204
N        0.98838509       4.53446134       3.58384850       80       0.08844906      -0.09938127      -1.09126520
N        9.73872052       9.04919067       6.97551442       81       0.82546562      -0.18973938      -0.45199871
N        2.52423156       6.62890106       0.10807424       82      -0.17928979       0.87157059      -0.12340130
N        8.27178118       6.90753924      10.43207286       83      -0.31210855      -0.45037854      -0.58075237
84
Lattice="9.27927581 0.0 0.0 0.08088892040902286 9.79941189823161 0.0 1.4137832588921204 3.758575243853041 10.515737712785201" Properties=species:S:1:pos:R:3:spacegroup_kinds:I:1:forces:R:3 spacegroup="P 1" unit_cell=conventional occupancy="_JSON {\"0\": {\"Cu\": 1}, \"1\": {\"Cu\": 1}, \"2\": {\"Cu\": 1}, \"3\": {\"Cu\": 1}, \"4\": {\"H\": 1}, \"5\": {\"H\": 1}, \"6\": {\"H\": 1}, \"7\": {\"H\": 1}, \"8\": {\"H\": 1}, \"9\": {\"H\": 1}, \"10\": {\"H\": 1}, \"11\": {\"H\": 1}, \"12\": {\"H\": 1}, \"13\": {\"H\": 1}, \"14\": {\"H\": 1}, \"15\": {\"H\": 1}, \"16\": {\"H\": 1}, \"17\": {\"H\": 1}, \"18\": {\"H\": 1}, \"19\": {\"H\": 1}, \"20\": {\"H\": 1}, \"21\": {\"H\": 1}, \"22\": {\"H\": 1}, \"23\": {\"H\": 1}, \"24\": {\"H\": 1}, \"25\": {\"H\": 1}, \"26\": {\"H\": 1}, \"27\": {\"H\": 1}, \"28\": {\"H\": 1}, \"29\": {\"H\": 1}, \"30\": {\"H\": 1}, \"31\": {\"H\": 1}, \"32\": {\"C\": 1}, \"33\": {\"C\": 1}, \"34\": {\"C\": 1}, \"35\": {\"C\": 1}, \"36\": {\"C\": 1}, \"37\": {\"C\": 1}, \"38\": {\"C\": 1}, \"39\": {\"C\": 1}, \"40\": {\"C\": 1}, \"41\": {\"C\": 1}, \"42\": {\"C\": 1}, \"43\": {\"C\": 1}, \"44\": {\"C\": 1}, \"45\": {\"C\": 1}, \"46\": {\"C\": 1}, \"47\": {\"C\": 1}, \"48\": {\"C\": 1}, \"49\": {\"C\": 1}, \"50\": {\"C\": 1}, \"51\": {\"C\": 1}, \"52\": {\"C\": 1}, \"53\": {\"C\": 1}, \"54\": {\"C\": 1}, \"55\": {\"C\": 1}, \"56\": {\"C\": 1}, \"57\": {\"C\": 1}, \"58\": {\"C\": 1}, \"59\": {\"C\": 1}, \"60\": {\"C\": 1}, \"61\": {\"C\": 1}, \"62\": {\"C\": 1}, \"63\": {\"C\": 1}, \"64\": {\"C\": 1}, \"65\": {\"C\": 1}, \"66\": {\"C\": 1}, \"67\": {\"C\": 1}, \"68\": {\"C\": 1}, \"69\": {\"C\": 1}, \"70\": {\"C\": 1}, \"71\": {\"C\": 1}, \"72\": {\"I\": 1}, \"73\": {\"I\": 1}, \"74\": {\"I\": 1}, \"75\": {\"I\": 1}, \"76\": {\"N\": 1}, \"77\": {\"N\": 1}, \"78\": {\"N\": 1}, \"79\": {\"N\": 1}, \"80\": {\"N\": 1}, \"81\": {\"N\": 1}, \"82\": {\"N\": 1}, \"83\": {\"N\": 1}}" energy=-554.17529296875 free_energy=-554.17529296875 stress="-0.0005318182520568371 -0.003347966820001602 0.0015819654799997807 -0.003347966820001602 0.0024083275347948074 -0.0012456767726689577 0.0015819654799997807 -0.0012456767726689577 -0.0013663752470165491" pbc="T T T"
Cu       2.54152457       3.23655110       2.73921910        0       0.06759487      -0.43825877      -0.01297332
Cu       8.20655550      10.34377916       7.80353706        1      -0.02403853       0.24006724      -0.12252098
Cu       3.20665317       4.89425555       0.77799869        2      -0.13737024      -0.36361721       0.15564510
Cu       7.61027695       8.61384063       9.75603763        3       0.06853792       0.50108600      -0.21529454
H        9.01825601       4.92855695       6.71398026        4       0.14641201       0.38156682      -1.45994663
H        1.70692703       8.56808626       3.87659422        5       0.19897905       0.17338166      -1.32294905
H        4.84801357       9.08821766       5.30890519        6      -0.27950999       0.39869931      -0.22654438
H        5.91343088       4.39834469       5.20311590        7       0.14336713       0.40735441      -1.22333848
H        5.73601872       8.84186673       1.15134013        8       0.32534128      -0.11004433      -0.94852543
H        5.05528458       4.71244973       9.40685895        9       0.33854884      -0.62944055      -0.81042069
H        5.91892555       7.94450007       3.41561883       10       0.60000384      -0.94838256       0.21616267
H        4.82364576       5.58505024       7.08034510       11      -0.73422205       1.25575113      -0.14141653
H        4.29761152      10.50392423       6.78551965       12       0.54673165      -0.47326183       0.11963253
H        6.52791938       3.04386150       3.71516770       13      -1.04985738       0.85728705      -0.38242525
H        2.40772324       3.98118933       9.47115521       14      -0.75552166       2.18052578      -0.90863174
H        8.34941721       9.52869541       1.07464656       15       0.09077758      -0.00635707       0.22220156
H        3.63392961       9.72886079       8.65733550       16       0.17920557      -0.51035666      -0.19379911
H        7.11169508       3.87172332       1.78762119       17      -0.06804043       0.68022025       0.84690303
H        1.30323431       3.82095273       7.58804998       18       0.44917610      -0.49930418      -0.35901141
H        9.47518091       9.75118157       2.95581233       19       0.64584541      -0.59505105      -0.62378073
H        4.40485822       1.29317283       0.76579591       20       0.61871439      -1.40433788       2.03269267
H        6.31738583      12.22407468       9.70686826       21      -0.14220320       0.85669690      -0.61859906
H        7.95465215       6.86251770       2.95088117       22      -1.36990118       1.61275220      -1.29176211
H        2.80741690       6.69469778       7.56790537       23       0.41166222      -0.36377293       0.25793901
H        0.34572120       5.45112780       1.81137810       24       0.07676980       0.00360735       0.33988932
H       10.39601574       8.09734692       8.72038599       25      -0.25491121       0.01081119       0.84432614
H        7.67030635       6.60786727       5.43247679       26      -1.35634637       1.05230081       0.85362130
H        3.11150320       6.88267552       5.02504821       27      -0.94376636       0.79726839       1.06199133
H        1.72580286       9.73365949       1.31663502       28       0.19135565      -0.28105980      -0.02085484
H        9.02145813       3.81792949       9.21244923       29       0.06972638      -0.72872961      -0.73503518
H        2.71940880       7.45893786       1.96830292       30       0.20047098      -0.09568200       0.63705623
H        8.04211441       6.08131966       8.55169441       31      -0.26793495      -0.03207031      -0.32788697
C        9.16900026       5.11188012       5.60061703       32      -0.72768342       0.35233819       0.08059054
C        1.60026362       8.45732790       4.91441871       33      -0.36254844      -0.71883440       2.35469508
C        2.82227516      11.97807473       7.39528252       34       0.99841249      -0.94785565      -0.13518412
C        7.92173979       1.57194992       3.10756278       35       1.83966875      -1.65988278      -0.31523976
C        3.34482248      11.40987216       5.10668441       36      -0.00504765       0.49504510      -0.60551977
C        7.44746915       2.11167844       5.42239758       37      -1.64361954       0.47376573      -0.23424962
C        4.05156765      10.69636703       4.08090351       38      -0.38856396       1.41569948      -2.29643250
C        6.66303315       2.82967128       6.49949461       39       1.00863600       0.47866696      -2.49243069
C        4.73709926       9.55206779       4.31614127       40       2.13826585      -2.59026933      -1.23557734
C        6.04703346       4.05501499       6.18864888       41      -1.16496265      -0.49069595       2.75855827
C        5.30499826       9.37859326       1.95962941       42       0.00261471      -0.32743102       0.76582611
C        5.49904635       4.17207572       8.52729196       43      -0.37077796       0.64156115       1.90476704
C        5.40713615       8.84681134       3.21395633       44      -1.64695597       1.99317193       2.08633089
C        5.38658118       4.72058139       7.27284923       45       1.47669792      -1.86145318      -1.37939310
C        1.76265528       3.37424097       5.52808398       46      -0.18271023      -0.62217468      -0.15210280
C        9.08153861      10.25325613       5.00989894       47       0.68037301      -1.75940657      -1.24477541
C        3.57246446      11.20630104       6.44009619       48      -1.38310015       1.04451144       1.80398023
C        7.21730233       2.31021971       4.01491141       49       0.86212987      -0.21788058       2.43751478
C        3.05502278      11.77605603       8.84848950       50       0.03283512       1.06555343       0.02550843
C        7.71886256       1.76085781       1.65632894       51      -0.17534938       0.20358281       0.47563148
C        2.89308410      12.87820967       9.74217678       52       1.27449620      -3.81187534       2.20042419
C        7.93208123       0.71114864       0.75875459       53      -0.58143377       0.48107982      -1.63069510
C        3.57175692      10.55847110       9.33269125       54      -0.74048990       0.92914087      -0.19972880
C        7.19902652       3.00440315       1.18780538       55       1.11648178      -1.80620193       0.10969400
C        0.86626545       4.35575715       4.89220843       56      -0.55374640       0.54057568       1.66169238
C        9.91984000       9.19501366       5.62325165       57       0.18842062       0.61216831      -0.04284260
C        1.89108845       3.16135397       6.91140503       58      -0.80240494       0.91384244       0.05138655
C        8.94992890      10.38545170       3.61861203       59      -1.75443316       1.99068141       0.53521192
C        4.53982813       0.76734947       1.82656061       60      -1.35233402       2.61507416      -3.47765875
C        6.26837303      12.76437101       8.72850420       61      -1.22926068       0.62995517       2.06002140
C        8.50740324       6.19086373       3.49401082       62       1.53437829      -1.77234530       1.99531090
C        2.25801344       7.41089565       6.99046485       63      -2.22152615       0.86953521       1.79484105
C        9.48127403       5.41461260       2.89809857       64       0.91991615      -1.11766744       0.09575373
C        1.22250406       8.18509651       7.66724219       65       1.49323487      -0.17591599      -2.72909665
C        8.34087638       6.03879393       4.87650039       66       2.30673480      -1.94642162       0.32130557
C        2.37263097       7.51357187       5.64258556       67       0.97576392      -0.13352935      -2.83894348
C        1.83492968       8.90989814       0.60549467       68       0.23668270      -0.98337233      -1.49270189
C        8.98596113       4.63091495       9.88847686       69      -0.92665941       2.15106869       2.36634636
C        2.38038229       7.64534452       0.97194687       70      -0.79846859       1.24961329      -0.98730159
C        8.36285702       5.85850431       9.55483951       71       1.40792918      -0.37200302       0.77148968
I        1.72978447       2.94220030       0.20710349       72       0.13288148       0.14224188      -0.10982164
I        8.99318036      10.63247169      10.30806885       73      -0.07465160      -0.09940732       0.13508220
I        4.65275748       5.16915643       2.82494982       74       0.07872713       0.19006862       0.07502122
I        6.12561742       8.37916069       7.73375190       75      -0.11021072      -0.16053310      -0.10665851
N        3.88885268       1.45907477       2.75297339       76       0.28459591      -1.41950536       2.55861497
N        6.79963077      12.13440377       7.73744611       77       1.63092864      -1.78899813      -1.25739741
N        2.43684325       2.57674540       4.65903363       78      -0.48630992       0.95772600       0.05594799
N        8.33165450      10.94238471       5.85724125       79      -0.25562960       0.70425808       0.87691998
N        1.00855303       4.53402861       3.59188874       80      -0.58958477       0.70515054      -2.29230571
N        9.74498179       9.06128627       6.97086010       81       0.52218980      -0.66077888       0.57909077
N        2.50595301       6.61276000       0.08928387       82       0.17552824       0.80457187       0.55570114
N        8.29722999       6.92041770      10.44356842       83      -0.77565670      -1.13585627      -1.87954497
84
Lattice="9.27927581 0.0 0.0 0.08088892040902286 9.79941189823161 0.0 1.4137832588921204 3.758575243853041 10.515737712785201" Properties=species:S:1:pos:R:3:spacegroup_kinds:I:1:forces:R:3 spacegroup="P 1" unit_cell=conventional occupancy="_JSON {\"0\": {\"Cu\": 1}, \"1\": {\"Cu\": 1}, \"2\": {\"Cu\": 1}, \"3\": {\"Cu\": 1}, \"4\": {\"H\": 1}, \"5\": {\"H\": 1}, \"6\": {\"H\": 1}, \"7\": {\"H\": 1}, \"8\": {\"H\": 1}, \"9\": {\"H\": 1}, \"10\": {\"H\": 1}, \"11\": {\"H\": 1}, \"12\": {\"H\": 1}, \"13\": {\"H\": 1}, \"14\": {\"H\": 1}, \"15\": {\"H\": 1}, \"16\": {\"H\": 1}, \"17\": {\"H\": 1}, \"18\": {\"H\": 1}, \"19\": {\"H\": 1}, \"20\": {\"H\": 1}, \"21\": {\"H\": 1}, \"22\": {\"H\": 1}, \"23\": {\"H\": 1}, \"24\": {\"H\": 1}, \"25\": {\"H\": 1}, \"26\": {\"H\": 1}, \"27\": {\"H\": 1}, \"28\": {\"H\": 1}, \"29\": {\"H\": 1}, \"30\": {\"H\": 1}, \"31\": {\"H\": 1}, \"32\": {\"C\": 1}, \"33\": {\"C\": 1}, \"34\": {\"C\": 1}, \"35\": {\"C\": 1}, \"36\": {\"C\": 1}, \"37\": {\"C\": 1}, \"38\": {\"C\": 1}, \"39\": {\"C\": 1}, \"40\": {\"C\": 1}, \"41\": {\"C\": 1}, \"42\": {\"C\": 1}, \"43\": {\"C\": 1}, \"44\": {\"C\": 1}, \"45\": {\"C\": 1}, \"46\": {\"C\": 1}, \"47\": {\"C\": 1}, \"48\": {\"C\": 1}, \"49\": {\"C\": 1}, \"50\": {\"C\": 1}, \"51\": {\"C\": 1}, \"52\": {\"C\": 1}, \"53\": {\"C\": 1}, \"54\": {\"C\": 1}, \"55\": {\"C\": 1}, \"56\": {\"C\": 1}, \"57\": {\"C\": 1}, \"58\": {\"C\": 1}, \"59\": {\"C\": 1}, \"60\": {\"C\": 1}, \"61\": {\"C\": 1}, \"62\": {\"C\": 1}, \"63\": {\"C\": 1}, \"64\": {\"C\": 1}, \"65\": {\"C\": 1}, \"66\": {\"C\": 1}, \"67\": {\"C\": 1}, \"68\": {\"C\": 1}, \"69\": {\"C\": 1}, \"70\": {\"C\": 1}, \"71\": {\"C\": 1}, \"72\": {\"I\": 1}, \"73\": {\"I\": 1}, \"74\": {\"I\": 1}, \"75\": {\"I\": 1}, \"76\": {\"N\": 1}, \"77\": {\"N\": 1}, \"78\": {\"N\": 1}, \"79\": {\"N\": 1}, \"80\": {\"N\": 1}, \"81\": {\"N\": 1}, \"82\": {\"N\": 1}, \"83\": {\"N\": 1}}" energy=-552.6956176757812 free_energy=-552.6956176757812 stress="-0.0007834406569600105 -0.0034452707041054964 0.0009463479509577155 -0.0034452707041054964 0.00317168515175581 -0.0017591890646144748 0.0009463479509577155 -0.0017591890646144748 -0.0036548913922160864" pbc="T T T"
Cu       2.51922798       3.22990908       2.73477716        0       0.13588540      -0.42912856      -0.10651575
Cu       8.19156561      10.35183875       7.78830936        1       0.09168523       0.05689831       0.03347966
Cu       3.19126643       4.90178958       0.76066061        2      -0.11971744      -0.23393650       0.16696848
Cu       7.60235343       8.61053983       9.75682311        3       0.10192407       0.48995489      -0.20378438
H        9.04198860       4.94488882       6.69596824        4       0.05393028       0.11275548      -0.54919982
H        1.67943995       8.57640460       3.87669603        5       0.32985994      -0.05823252      -0.88192588
H        4.85067130       9.08256242       5.33216974        6      -0.36173853       0.64910471      -1.19742227
H        5.91245726       4.40712862       5.19670743        7       0.07119836       0.65784168      -2.16894412
H        5.73585961       8.81396298       1.13312916        8       0.13139936       0.05473332      -0.72762287
H        5.04815733       4.71887729       9.42544127        9       0.61596131      -0.98941052      -1.50355160
H        5.90049197       7.95294267       3.39722593       10       1.08661485      -1.67963898       0.35328966
H        4.85090992       5.59772300       7.07845775       11      -1.00589907       1.65727532      -0.19703230
H        4.28299842      10.50271156       6.79964712       12       0.94776028      -0.92871040       0.24415666
H        6.55374022       3.01486429       3.69757420       13      -2.84928942       2.76481342      -1.04730427
H        2.38011697       4.00941844       9.45777990       14       0.17262411       0.11844683      -0.34253877
H        8.35010627       9.54825443       1.06012825       15       0.29405716      -0.71317208       0.32277724
H        3.62919832       9.73345380       8.68455326       16       0.23049816      -1.44945550      -1.04249251
H        7.09688000       3.86282996       1.76753949       17       0.01418891       0.15979049       0.65461862
H        1.31929397       3.83895519       7.58565717       18       0.60669535      -0.64644229      -0.39277765
H        9.46153827       9.76806931       2.97161817       19       2.05038738      -2.29776764      -2.44223714
H        4.41313927       1.31870823       0.77168676       20       0.69193447      -1.67071879       1.88406980
H        6.31026001      12.19928455       9.72593196       21      -0.19303009       1.11317503      -1.22176158
H        7.93350823       6.86448039       2.93113954       22      -1.24316025       1.48117292      -1.20088995
H        2.83244510       6.70913305       7.55324081       23       0.67979562      -0.67072934       0.60512900
H        0.35025125       5.44583034       1.78785837       24      -0.05107513       0.05299926       0.85143065
H       10.41521096       8.12254374       8.73713440       25      -0.27662069      -0.02797629      -0.37325656
H        7.66424591       6.62923752       5.46107245       26      -0.66017938       0.40890256       0.09858494
H        3.09553019       6.87065200       5.05374344       27      -0.90059268       1.03594494       1.06382442
H        1.69822033       9.75320121       1.31052414       28       0.37258896      -0.88206786      -0.61311758
H        9.00384469       3.80207535       9.22688567       29       0.11557453      -1.17392063      -1.10302138
H        2.69872143       7.45800637       1.95149011       30       0.72155404      -0.42581934       2.25073910
H        8.01957236       6.08609310       8.57097559       31      -0.53700817       0.10252464      -1.29342055
C        9.18254121       5.08492449       5.61237137       32      -1.89612031       1.84970784      -1.73382640
C        1.60358554       8.44599769       4.92687290       33      -0.08153787      -0.54738176       0.93675959
C        2.79677269      11.95651973       7.40332646       34       1.72210574      -1.16941702       0.09017622
C        7.89411836       1.58305560       3.08710308       35       3.05280399      -2.71888781       0.39133266
C        3.32159560      11.38150108       5.09442285       36       0.00212651       1.36513400       0.11770439