116
Lattice="18.31820646 0.0 0.0 -9.007021316357873 16.323597150864725 0.0 -9.050233227317468 -5.37157528063975 15.11213673081024" Properties=species:S:1:pos:R:3:spacegroup_kinds:I:1:forces:R:3 spacegroup="P 1" unit_cell=conventional occupancy="_JSON {\"0\": {\"Zn\": 1}, \"1\": {\"Zn\": 1}, \"2\": {\"Zn\": 1}, \"3\": {\"Zn\": 1}, \"4\": {\"Zn\": 1}, \"5\": {\"Zn\": 1}, \"6\": {\"Zn\": 1}, \"7\": {\"Zn\": 1}, \"8\": {\"H\": 1}, \"9\": {\"H\": 1}, \"10\": {\"H\": 1}, \"11\": {\"H\": 1}, \"12\": {\"H\": 1}, \"13\": {\"H\": 1}, \"14\": {\"H\": 1}, \"15\": {\"H\": 1}, \"16\": {\"H\": 1}, \"17\": {\"H\": 1}, \"18\": {\"H\": 1}, \"19\": {\"H\": 1}, \"20\": {\"H\": 1}, \"21\": {\"H\": 1}, \"22\": {\"H\": 1}, \"23\": {\"H\": 1}, \"24\": {\"H\": 1}, \"25\": {\"H\": 1}, \"26\": {\"H\": 1}, \"27\": {\"H\": 1}, \"28\": {\"H\": 1}, \"29\": {\"H\": 1}, \"30\": {\"H\": 1}, \"31\": {\"H\": 1}, \"32\": {\"H\": 1}, \"33\": {\"H\": 1}, \"34\": {\"C\": 1}, \"35\": {\"C\": 1}, \"36\": {\"C\": 1}, \"37\": {\"C\": 1}, \"38\": {\"C\": 1}, \"39\": {\"C\": 1}, \"40\": {\"C\": 1}, \"41\": {\"C\": 1}, \"42\": {\"C\": 1}, \"43\": {\"C\": 1}, \"44\": {\"C\": 1}, \"45\": {\"C\": 1}, \"46\": {\"C\": 1}, \"47\": {\"C\": 1}, \"48\": {\"C\": 1}, \"49\": {\"C\": 1}, \"50\": {\"C\": 1}, \"51\": {\"C\": 1}, \"52\": {\"C\": 1}, \"53\": {\"C\": 1}, \"54\": {\"C\": 1}, \"55\": {\"C\": 1}, \"56\": {\"C\": 1}, \"57\": {\"C\": 1}, \"58\": {\"C\": 1}, \"59\": {\"C\": 1}, \"60\": {\"C\": 1}, \"61\": {\"C\": 1}, \"62\": {\"C\": 1}, \"63\": {\"C\": 1}, \"64\": {\"C\": 1}, \"65\": {\"C\": 1}, \"66\": {\"C\": 1}, \"67\": {\"C\": 1}, \"68\": {\"C\": 1}, \"69\": {\"C\": 1}, \"70\": {\"C\": 1}, \"71\": {\"C\": 1}, \"72\": {\"C\": 1}, \"73\": {\"C\": 1}, \"74\": {\"C\": 1}, \"75\": {\"C\": 1}, \"76\": {\"C\": 1}, \"77\": {\"C\": 1}, \"78\": {\"C\": 1}, \"79\": {\"I\": 1}, \"80\": {\"I\": 1}, \"81\": {\"I\": 1}, \"82\": {\"I\": 1}, \"83\": {\"I\": 1}, \"84\": {\"I\": 1}, \"85\": {\"O\": 1}, \"86\": {\"O\": 1}, \"87\": {\"O\": 1}, \"88\": {\"O\": 1}, \"89\": {\"O\": 1}, \"90\": {\"O\": 1}, \"91\": {\"O\": 1}, \"92\": {\"O\": 1}, \"93\": {\"O\": 1}, \"94\": {\"O\": 1}, \"95\": {\"O\": 1}, \"96\": {\"O\": 1}, \"97\": {\"O\": 1}, \"98\": {\"O\": 1}, \"99\": {\"O\": 1}, \"100\": {\"O\": 1}, \"101\": {\"O\": 1}, \"102\": {\"O\": 1}, \"103\": {\"O\": 1}, \"104\": {\"O\": 1}, \"105\": {\"O\": 1}, \"106\": {\"O\": 1}, \"107\": {\"O\": 1}, \"108\": {\"O\": 1}, \"109\": {\"O\": 1}, \"110\": {\"O\": 1}, \"111\": {\"O\": 1}, \"112\": {\"O\": 1}, \"113\": {\"O\": 1}, \"114\": {\"O\": 1}, \"115\": {\"O\": 1}}" energy=-736.2549438476562 free_energy=-736.2549438476562 stress="-0.0006621438660658896 -0.0005171889206394553 0.00013641035184264183 -0.0005171889206394553 -0.0010965177789330482 0.0005570490611717105 0.00013641035184264183 0.0005570490611717105 0.0012428640620782971" pbc="T T T"
Zn      -1.56305725       6.41550589       6.92739591        0      -0.32514763       0.04967248       0.10039853
Zn       1.61561765       6.47644208       6.87513673        1       0.29964662       0.25275949       0.05780740
Zn       0.02115468       3.66090553       6.88032174        2       0.38117608       0.08197022      -0.18033990
Zn       0.08781959       5.49467845       9.51255181        3       0.09822035       0.29718518      -0.25834638
Zn       1.78634795      15.47095438       0.60087614        4       0.36218050       0.19283289       0.00225583
Zn       9.13461289       1.82724976       0.59180079        5       0.04091782       0.45621815       0.27358896
Zn      -1.32549213      15.33112493       0.61737205        6      -0.39992079      -0.32091218       0.02149124
Zn      -8.85664272      10.96011415      13.09631326        7      -0.10640155      -0.24913985      -0.49241912
H       -2.28941631       7.46068198      12.33155647        8       0.58678877       0.34789094       0.22514281
H       -0.11362039       0.12739027       9.08759165        9      -0.11228206      -0.20237657      -0.57229096
H       -3.29313771       6.07389791      12.11175439       10      -0.18752806       0.55694461       0.04218587
H      -11.58546484       9.01206586      10.37526101       11      -0.24054620       0.18473393       0.19122589
H      -13.52609841       8.77450682      12.77109161       12      -0.42939723      -0.14596289       0.39459640
H        4.65068403       8.51612804       9.14161823       13      -0.08732930       0.21377818      -0.74983251
H        2.58476563       1.82088034       4.11087261       14      -0.91668427      -0.64350271       0.00791910
H        4.35988858       4.31488126       4.09166512       15      -0.82339108      -0.52141941       0.26884252
H       -1.69539096      12.01546964       3.10665424       16      -1.20444083       0.46630758      -0.33673292
H        1.34501301      11.93332511       3.33977631       17      -0.39168659       0.21392760      -0.25635469
H       -3.86181789       8.51109854      13.68708529       18       0.40722293       0.52828658       0.35543683
H       -6.61881585       8.44754786      10.46997573       19      -0.14545509       0.41056007      -0.33683097
H       -2.46666952       9.49816032      10.86973583       20      -0.28227049      -0.15056008      -0.24553107
H       -4.11046347      10.42386901      12.18049849       21       0.18364388       0.09214410       0.11232483
H       12.34444493       2.86696339       5.37638062       22       0.22269118       0.24160093       0.10413085
H        3.07459021       5.71428144      11.96202939       23       1.01196527       0.52385032      -0.53808808
H        5.60428829       2.41629082       5.35868041       24       0.41220075       0.02986223      -0.27603483
H       -5.62837346       7.11640502      14.69457246       25      -0.24083823       0.15931122      -0.01050964
H       -7.48601112       6.12454712      10.79552947       26       0.06208664       0.36308059       0.47556776
H       -3.57027897       9.47447552       9.45410892       27      -0.08635367       0.11565095       0.16692308
H       -5.28556593      10.32356355      10.83633095       28       0.49083632      -0.24545196       0.46056050
H       13.93612320       0.60969500       3.02515758       29       0.09919363       0.83391571       0.35887158
H       12.58434224       3.38451197       2.90935759       30       0.09801859      -0.62519544       0.04603340
H       -2.52562438       1.89153128       4.18143388       31      -1.04360342       0.41057676       0.23222452
H        0.36321211      -2.03292959      10.28019774       32      -0.13040665      -0.01850052      -0.24115546
H       -0.15021537      -0.32621657      12.76025023       33      -0.02830014       0.40309846       0.43023106
C        2.74176534       6.80492081       9.57165338       34       0.30843201       0.68973666       0.20902467
C       -3.84922673       3.26765133       5.09166949       35       0.20436917       2.10273767       2.47702861
C        0.23487402      -1.10225920      10.83028898       36      -0.11537106      -0.02553572       1.32154274
C       -2.65492502       3.87222438       5.83501820       37      -1.76726842       2.12769532      -0.40554783
C        0.03759076      -1.21716146      12.19255902       38      -0.00887115       1.08571959      -2.30826664
C        0.24176711       0.15862276      10.10692316       39      -0.41797632      -2.16829658      -0.24174440
C        0.63321552       1.35849257      10.48477187       40       0.79549789       2.07627296       0.62260741
C      -12.50410836       8.74095606      10.91593825       41      -0.20662442      -0.18496485       0.67173654
C      -12.62339965       9.02574653      12.24938030       42       1.06612289      -0.22364695      -1.25849020
C        4.75140502       8.09598570      10.12649370       43       3.02883482       2.93762898      -0.34826681
C        3.95332587       7.13583601      10.44693104       44      -3.22807932      -3.76606846       1.63112974
C       -4.91696254       7.14933521      10.11755649       45      -0.51920235       0.05097147       0.17905986
C        4.46509455       1.79210948       3.01826059       46       0.27375570       0.22899631       0.17138161
C        5.82217969       1.81447827       3.25755248       47      -0.83834058      -0.32821503       0.30893642
C        3.43431504       2.40038209       3.84202853       48       0.92836100       0.04150145      -0.27066073
C       -0.07081309       8.28126255       5.31963876       49       1.26382208       1.00034118       0.21473859
C        3.49260742       3.64787005       4.34294496       50       1.67779613       0.74797392      -0.78514373
C       -0.75833772      11.62749107       3.40015896       51       1.27000690      -0.19606930       0.55992252
C        0.35883450      12.26273262       2.96411017       52       0.70617485      -1.10510945       0.77308154
C       -0.76024886      10.53858910       4.36729345       53       0.77000982      -1.01446187      -0.53512484
C       -0.02609799       9.36773532       4.30042731       54      -0.90688300       1.26248014      -0.26698321
C        0.00328037      -2.44096892      12.91203777       55       0.89199936      -2.44023991       1.59122229
C       -3.52737173       7.60954531      10.58835268       56       0.91228569       0.43437186      -0.42739394
C        0.33605132      13.37044245       2.02845605       57      -0.94559574       0.54067230      -0.72183257
C       11.75319351       1.63431513       1.94359449       58      -0.01747805       0.85313225       0.46537957
C      -11.49049063       9.60414398      13.03716249       59      -1.30513000      -0.15924786      -0.25371754
C        6.81325711       1.25902975       2.29030531       60      -0.12203169      -0.00440255      -0.48722011
C        0.44510579       2.53761980       9.58259321       61      -0.68794793       0.90558857      -1.06416917
C       -6.36868137       9.35702749      12.98501651       62      -1.21853220       0.26946068      -0.23032591
C        2.47806444       4.16548280       5.22729145       63       0.61232007       2.98197985       1.21438217
C       -2.35147359       7.01543825       9.70073870       64      -2.73555899       1.82205057      -1.25860369
C       -3.29719116       7.18804741      12.05769572       65      -0.28924555      -0.77508724      -0.31293285
C       -4.31756176       7.82057000      12.99194698       66      -0.57772362      -1.11428928      -0.42061362
C       -5.31401984       8.62037744      12.16339217       67      -0.65595126       0.21552618      -0.76717222
C       -3.46880365       9.17112680      10.50818740       68       0.51691025      -0.38745606       0.42819929
C       -5.24366312       3.72582521       5.45317902       69       0.25766569      -0.96030259      -0.72483134
C        4.07192896       6.21775148      11.65049803       70      -0.91499758      -0.04063365       0.19882047
C        6.38908664       2.20037240       4.57572712       71      -0.42643636      -0.14512502      -0.15483299
C       -4.93518231       6.74591969      13.91343681       72       0.62363064      -0.54641885       0.39538532
C       -7.01875918       6.78816910      11.59723971       73      -0.60760015      -0.78776920      -0.51698983
C       -4.54074286       9.73794826      11.44575626       74      -0.61743581       0.65458739      -1.14674413
C       -5.99649999       7.76448150      11.03926662       75       0.84437597      -0.43843299       1.15255666
C       13.79132617       1.68037666       3.34004619       76       0.91249514      -1.64132142       0.06547864
C       12.76062460       2.29504570       2.77202236       77      -0.71272713       1.95289111      -0.04869606
C       -3.58124757       2.29022846       4.25649390       78       1.06347847      -2.54857492      -2.09869909
I        1.62558176       1.81900195      12.28324573       79      -0.07863352      -0.14670095      -0.05916776
I        3.66825133       0.93251963       1.26025335       80       0.01993927       0.00697552       0.18261489
I       -2.04196159      10.90324225       5.98739586       81      -0.08583574      -0.03881624       0.03488468
I        1.17896043       8.84504299       2.68073661       82      -0.00042432       0.15082909      -0.04269741
I       -5.49256455       7.74144405       8.07508411       83       0.03728145      -0.22256410       0.19651456
I       -4.96319451       4.93984445      10.11340178       84      -0.13726908       0.18830106      -0.24729368
O        0.05132821       5.51122880       7.53277308       85       0.03980148      -0.26292622       0.37837338
O      -11.68192503       9.62535112      14.29436693       86       0.00784019      -0.11839917       0.74553460
O        7.55507122       2.14500042       1.75645636       87       0.30913159      -0.34848818      -0.11183061
O        1.68367070       6.42615222      10.21181510       88       0.77118826       0.10183963      -0.91281891
O       -7.40370264       9.84798472      12.37191296       89       1.18776250      -0.45856512       0.41991889
O        6.78496595      -0.00079701       2.06963970       90       0.14462449       0.62929845       0.19889526
O       -6.11855122       9.48268749      14.22152903       91      -0.08854817       0.19333892       0.38634104
O       11.90593149       0.43566359       1.66941414       92       0.47845662      -2.81643891      -0.69119245
O      -10.49924525      10.05955149      12.41375700       93       0.93449354       0.27683991      -0.50969881
O       -0.14300569      -2.32852846      14.19733050       94      -0.22311153       0.31307691      -0.91291285
O       -0.81484853      13.65332939       1.50801576       95       0.61774558       0.08276754       0.13164252
O       -1.14309343       7.66009188       5.46367283       96      -0.96055132      -0.67063177       0.06344735
O       -2.83823509       5.11825742       6.20537729       97       0.61263001      -1.93554616      -0.29545876
O        1.02448063       8.14577918       5.96323595       98      -0.04295747      -0.43295780       0.16045091
O        0.30282417       2.32366860       8.29507180       99       0.34754434       0.03268819       1.94133925
O        2.65313078       5.41913197       5.64200212      100       0.07634287      -1.77558124      -0.92636228
O       -1.52547112       6.30835247      10.27672859      101       1.84552228      -1.38549209       0.75056440
O        1.53740911       3.42744699       5.58387854      102      -1.45120239      -1.05710554       0.44991606
O       -2.39830725       7.35358226       8.45747627      103       0.49115112      -0.37219954       0.77382052
O       -5.61298621       4.83631238       5.74771791      104      -0.12075938       0.52476114       0.27129117
O        5.10722163       5.96768254      12.25206084      105      -0.01346865       0.21690989      -0.14262037
O        7.59107217       2.16851543       4.81243571      106      -0.02477345       0.14188913       0.32325098
O        0.36041612       3.69009024      10.16175080      107       0.16617256      -1.21758664      -0.41262981
O       -4.55389284       5.58623547      13.98171977      108      -0.24178776       0.43080628      -0.19366470
O       -7.38583609       6.73868724      12.75821260      109       0.31788093       0.12344117      -0.34578177
O        2.91150302       7.01614577       8.31422197      110      -0.78944945      -0.51799762       0.68681264
O       -1.62415288       3.15192915       5.95177114      111       0.42523205      -0.03061345       0.29374623
O       -8.88407355      10.97224992      15.02117627      112       0.38001645      -0.21000846       0.29543456
O        0.23542907      -3.58442489      12.31968552      113      -0.37602797       1.30612063      -0.00944638
O        1.43923544      13.98015396       1.79985725      114      -0.00975470      -0.18758108       0.13417980
O       10.76621817       2.33157651       1.58973988      115      -1.22634482       1.20253205      -0.43530065
116
Lattice="18.31820646 0.0 0.0 -9.007021316357873 16.323597150864725 0.0 -9.050233227317468 -5.37157528063975 15.11213673081024" Properties=species:S:1:pos:R:3:spacegroup_kinds:I:1:forces:R:3 spacegroup="P 1" unit_cell=conventional occupancy="_JSON {\"0\": {\"Zn\": 1}, \"1\": {\"Zn\": 1}, \"2\": {\"Zn\": 1}, \"3\": {\"Zn\": 1}, \"4\": {\"Zn\": 1}, \"5\": {\"Zn\": 1}, \"6\": {\"Zn\": 1}, \"7\": {\"Zn\": 1}, \"8\": {\"H\": 1}, \"9\": {\"H\": 1}, \"10\": {\"H\": 1}, \"11\": {\"H\": 1}, \"12\": {\"H\": 1}, \"13\": {\"H\": 1}, \"14\": {\"H\": 1}, \"15\": {\"H\": 1}, \"16\": {\"H\": 1}, \"17\": {\"H\": 1}, \"18\": {\"H\": 1}, \"19\": {\"H\": 1}, \"20\": {\"H\": 1}, \"21\": {\"H\": 1}, \"22\": {\"H\": 1}, \"23\": {\"H\": 1}, \"24\": {\"H\": 1}, \"25\": {\"H\": 1}, \"26\": {\"H\": 1}, \"27\": {\"H\": 1}, \"28\": {\"H\": 1}, \"29\": {\"H\": 1}, \"30\": {\"H\": 1}, \"31\": {\"H\": 1}, \"32\": {\"H\": 1}, \"33\": {\"H\": 1}, \"34\": {\"C\": 1}, \"35\": {\"C\": 1}, \"36\": {\"C\": 1}, \"37\": {\"C\": 1}, \"38\": {\"C\": 1}, \"39\": {\"C\": 1}, \"40\": {\"C\": 1}, \"41\": {\"C\": 1}, \"42\": {\"C\": 1}, \"43\": {\"C\": 1}, \"44\": {\"C\": 1}, \"45\": {\"C\": 1}, \"46\": {\"C\": 1}, \"47\": {\"C\": 1}, \"48\": {\"C\": 1}, \"49\": {\"C\": 1}, \"50\": {\"C\": 1}, \"51\": {\"C\": 1}, \"52\": {\"C\": 1}, \"53\": {\"C\": 1}, \"54\": {\"C\": 1}, \"55\": {\"C\": 1}, \"56\": {\"C\": 1}, \"57\": {\"C\": 1}, \"58\": {\"C\": 1}, \"59\": {\"C\": 1}, \"60\": {\"C\": 1}, \"61\": {\"C\": 1}, \"62\": {\"C\": 1}, \"63\": {\"C\": 1}, \"64\": {\"C\": 1}, \"65\": {\"C\": 1}, \"66\": {\"C\": 1}, \"67\": {\"C\": 1}, \"68\": {\"C\": 1}, \"69\": {\"C\": 1}, \"70\": {\"C\": 1}, \"71\": {\"C\": 1}, \"72\": {\"C\": 1}, \"73\": {\"C\": 1}, \"74\": {\"C\": 1}, \"75\": {\"C\": 1}, \"76\": {\"C\": 1}, \"77\": {\"C\": 1}, \"78\": {\"C\": 1}, \"79\": {\"I\": 1}, \"80\": {\"I\": 1}, \"81\": {\"I\": 1}, \"82\": {\"I\": 1}, \"83\": {\"I\": 1}, \"84\": {\"I\": 1}, \"85\": {\"O\": 1}, \"86\": {\"O\": 1}, \"87\": {\"O\": 1}, \"88\": {\"O\": 1}, \"89\": {\"O\": 1}, \"90\": {\"O\": 1}, \"91\": {\"O\": 1}, \"92\": {\"O\": 1}, \"93\": {\"O\": 1}, \"94\": {\"O\": 1}, \"95\": {\"O\": 1}, \"96\": {\"O\": 1}, \"97\": {\"O\": 1}, \"98\": {\"O\": 1}, \"99\": {\"O\": 1}, \"100\": {\"O\": 1}, \"101\": {\"O\": 1}, \"102\": {\"O\": 1}, \"103\": {\"O\": 1}, \"104\": {\"O\": 1}, \"105\": {\"O\": 1}, \"106\": {\"O\": 1}, \"107\": {\"O\": 1}, \"108\": {\"O\": 1}, \"109\": {\"O\": 1}, \"110\": {\"O\": 1}, \"111\": {\"O\": 1}, \"112\": {\"O\": 1}, \"113\": {\"O\": 1}, \"114\": {\"O\": 1}, \"115\": {\"O\": 1}}" energy=-735.13525390625 free_energy=-735.13525390625 stress="-0.0020215155091136694 0.0006148307584226131 -0.0010410271352156997 0.0006148307584226131 -0.0036093629896640778 -0.0005171290249563754 -0.0010410271352156997 -0.0005171290249563754 0.0014726598747074604" pbc="T T T"
Zn      -1.58540001       6.43233540       6.95041245        0      -0.22663809      -0.22294706      -0.33447337
Zn       1.64497934       6.45711746       6.88511791        1      -0.21878451       0.21083368       0.23847701
Zn       0.00474943       3.66810481       6.87829289        2       0.46484804      -0.20562398      -0.20123690
Zn       0.07059354       5.50101259       9.53884399        3       0.13550375       0.20839942      -0.51581979
Zn       1.75717326      15.49086024       0.60756757        4       0.78736222      -0.08758648      -0.05314270
Zn       9.10906285       1.84627875       0.58163571        5       0.50760311       0.05179098       0.74567878
Zn      -1.30977731      15.30315992       0.62560411        6      -0.39686269       0.01986409      -0.07090852
Zn      -8.87857029      10.96973701      13.09155320        7       0.01956499      -0.59707201      -0.44146228
H       -2.27115834       7.47847523      12.34303403        8      -0.54466963       0.15763813      -0.02624680
H       -0.13499470       0.12727702       9.09422454        9      -0.06373364      -0.14917485      -0.19569439
H       -3.27462303       6.05862534      12.09053934       10      -0.37288725       1.43888879       0.23266116
H      -11.60664878       9.02200385      10.38723084       11      -0.07471183       0.13906267       0.10004967
H      -13.53444258       8.74611515      12.74627263       12      -0.01757887       0.11425349       0.45329112
H        4.65730421       8.49290086       9.17075557       13       0.03841047       0.60271108      -1.45385575
H        2.61398067       1.79387016       4.13725864       14      -0.58613527      -0.36779514      -0.11466761
H        4.35239110       4.30164236       4.08156688       15      -0.61827928      -0.28139967       0.20516998
H       -1.69751009      12.01482008       3.09588301       16      -1.32462072       0.44776708      -0.30611205
H        1.33469702      11.93456896       3.35210217       17      -0.19701792       0.05343392      -0.06065328
H       -3.84830599       8.53267362      13.65981263       18       0.16399321       0.14158618       0.36401194
H       -6.63250516       8.47061924      10.44896407       19       0.29968441      -0.19765995       0.27993989
H       -2.49624577       9.52237076      10.84999946       20       0.13537990      -0.23468919      -0.17601773
H       -4.11093066      10.43817990      12.18404489       21       0.42707798       0.14146805       0.26102650
H       12.35957069       2.87443885       5.37815748       22       0.14595976       0.16237161       0.21743050
H        3.06770968       5.69878935      11.97462972       23       1.38349187       0.59632856      -0.68298256
H        5.57760730       2.44190732       5.38290801       24       1.07513070      -0.29494059      -0.76998711
H       -5.64057040       7.09718392      14.66737143       25      -0.52682447       0.27730465       0.29905909
H       -7.48526225       6.10380700      10.82196261       26       0.17631613       0.31354070       0.28969422
H       -3.58361571       9.48165221       9.42540346       27      -0.13111997      -0.01591843       0.76767921
H       -5.29321566      10.34221316      10.85069771       28       0.87920213      -0.63759661       0.78258252
H       13.95327431       0.63101566       3.02410611       29       0.19375890       0.03397598       0.03674996
H       12.57117952       3.37621893       2.92406254       30       0.01788601      -0.78898907      -0.16246670
H       -2.54243726       1.91235809       4.15673475       31       0.11232373      -0.06886500       0.21340825
H        0.34371808      -2.01482801      10.26714068       32      -0.08352011      -0.57984060      -0.42940089
H       -0.13242850      -0.32953608      12.77003565       33      -0.16228150       0.84111094       0.53411490
C        2.74728124       6.79407592       9.59381165       34      -0.18712622       0.87477291      -0.86920333
C       -3.85259266       3.26984957       5.08304251       35       0.48926789       0.95312679       1.74002790
C        0.20964311      -1.11748728      10.83585109       36      -0.01394820       1.44828904       0.18878967
C       -2.67814175       3.86582437       5.82862878       37      -1.21184778       2.06499076      -0.49591845
C        0.01500109      -1.18936309      12.16656900       38       0.17888062      -1.20311463      -0.22644548
C        0.21426182       0.16531311      10.12859693       39      -0.55532151      -2.62952781      -1.03965199
C        0.63430478       1.35730334      10.47183801       40       0.73861617       2.49985695       0.99076539
C      -12.50870089       8.72077400      10.93186280       41       0.56417966       0.41067749       0.81038022
C      -12.60890800       9.03940942      12.26179249       42       0.25806105      -0.95322829      -1.22058415
C        4.77810350       8.08544181      10.13731661       43       2.42890382       2.62280655      -0.03574044
C        3.94056580       7.16239280      10.45071912       44      -3.09308004      -4.67683411       2.30949974
C       -4.91048761       7.14776417      10.13177213       45      -1.30312467      -0.10814582      -0.12357422
C        4.49359456       1.80233769       2.99768448       46      -2.20242071       0.53169990       0.31091779
C        5.79255429       1.79552724       3.27531511       47       1.77537227      -0.48539692      -0.17867237
C        3.43756838       2.41484885       3.83237014       48       0.78595722      -0.84287715      -0.43186244
C       -0.06220743       8.29517553       5.33742201       49      -0.53978324       0.04557931      -0.14590451
C        3.48655286       3.65057343       4.33969259       50       1.67387843       0.87167859      -0.65547556
C       -0.77584243      11.62199192       3.42204923       51       1.56593835       0.19269964       0.14676780
C        0.34761458      12.24891826       2.99223731       52       0.59054554      -0.49343008      -0.00199881
C       -0.76227376      10.54155520       4.37407686       53       0.36091042      -1.02828145      -0.20425960
C       -0.03862225       9.37839267       4.29366314       54      -0.48195207       0.65502119       0.12822184
C        0.02729702      -2.44777334      12.89545142       55       0.26576200      -1.96367049       2.87336683
C       -3.55266049       7.61486136      10.58111156       56       1.51117170       0.34998673       0.15185602
C        0.35198371      13.35922209       2.01144309       57      -2.17290568      -0.59248197       0.60646302
C       11.75122392       1.60594879       1.96788057       58      -0.68848944       2.96758699       0.11148551
C      -11.47912394       9.59231921      13.05745080       59      -1.12840319       0.34912172      -0.51954854
C        6.79884791       1.23347420       2.26349477       60      -0.03405374       2.75992346       0.90546918
C        0.42856161       2.56001709       9.57552938       61      -0.20061056      -0.51646703      -0.67276078
C       -6.37084615       9.38163008      12.98538461       62      -0.86422706      -0.80831707      -0.80614591
C        2.49439367       4.18385027       5.24239416       63      -0.84101343       0.98152435       0.77969211
C       -2.38060573       7.01495332       9.68132783       64      -1.51542830       0.94935417       0.81227696
C       -3.32479066       7.21042250      12.08142715       65       1.71751177      -1.97295856      -1.37231731
C       -4.32597200       7.81621257      12.98809654       66      -0.32351857      -0.95973587       0.78371966
C       -5.29582137       8.59806693      12.19109915       67      -1.95083547       1.71405005      -2.09142351
C       -3.48499925       9.17826871      10.50339106       68       0.58124328      -0.27753818      -0.45386910
C       -5.24447324       3.74930626       5.47440024       69       1.73642111      -5.78868484      -2.31912088
C        4.09754438       6.19328589      11.66489603       70      -3.78633356       0.83495027      -1.09564459
C        6.40924794       2.17376395       4.60416018       71      -3.96097732       0.33482921      -0.31948960
C       -4.94852128       6.71946615      13.90613982       72       0.23543955       1.80528259       0.05497423
C       -7.00298339       6.77140316      11.60702716       73      -1.10736179      -0.88325030      -0.85301161
C       -4.51538241       9.74117187      11.45572533       74      -2.03467917       0.50350815      -1.29957473
C       -6.01910874       7.75791553      11.05060732       75       1.44366169       0.27033120       0.57011700
C       13.80611195       1.67616564       3.31909364       76      -0.26860952      -0.38004035      -0.26598862
C       12.73883503       2.28798683       2.74395947       77       1.45712566       1.64347947       1.72415042
C       -3.56582053       2.27332496       4.23885578       78      -0.55268610      -0.84964824      -1.24694991
I        1.61956404       1.83952112      12.27565737       79      -0.02628139      -0.18945521      -0.04237689
I        3.66553972       0.91359252       1.23759800       80       0.13482077       0.16052775       0.35343152
I       -2.05993047      10.89783273       6.00104019       81       0.00953038      -0.07946140      -0.04304579
I        1.19490008       8.85773612       2.66924786       82      -0.15516882       0.18546155       0.14942923
I       -5.47177438       7.72438217       8.05699781       83      -0.02817667      -0.22829777       0.36400259
I       -4.97352848       4.91454197      10.11016089       84      -0.06050655       0.42438707      -0.19932380
O        0.02203568       5.48408694       7.54231238       85       0.33686629       0.32417405       0.42450303
O      -11.71011254       9.62952212      14.32118571       86       0.66189420      -0.03915075      -0.05038872
O        7.56534915       2.12634053       1.75886388       87      -0.14863026      -0.37097242      -0.03550699
O        1.67114701       6.41512553      10.23086117       88       1.65059674       0.40547207      -1.33228540
O       -7.41893289       9.84030103      12.39226624       89       1.00326085      -0.14533056      -0.03462932
O        6.78722751       0.01576811       2.08539137       90       0.17449296      -2.16297984      -0.59556133
O       -6.12937843       9.45608107      14.20744671       91      -0.00549528       0.61789215       1.87252867
O       11.89741387       0.44642566       1.65362958       92       0.77235508      -5.18305779      -1.11247790
O      -10.48734535      10.04831644      12.39444413       93       0.07384239      -0.15810889       0.52988553
O       -0.11867745      -2.35506746      14.22548741       94       0.00210222       0.97986323      -3.09939623
O       -0.80148515      13.66798979       1.52956600       95       0.11043993      -0.08815555      -0.11420615