82
Lattice="11.0267153 0.0 0.0 -0.5078599251288318 15.950660052716385 0.0 0.10636455869434003 -1.9637966060179595 17.186052227875063" Properties=species:S:1:pos:R:3:spacegroup_kinds:I:1:forces:R:3 spacegroup="P 1" unit_cell=conventional occupancy="_JSON {\"0\": {\"Zn\": 1}, \"1\": {\"Zn\": 1}, \"2\": {\"H\": 1}, \"3\": {\"H\": 1}, \"4\": {\"H\": 1}, \"5\": {\"H\": 1}, \"6\": {\"H\": 1}, \"7\": {\"H\": 1}, \"8\": {\"H\": 1}, \"9\": {\"H\": 1}, \"10\": {\"H\": 1}, \"11\": {\"H\": 1}, \"12\": {\"H\": 1}, \"13\": {\"H\": 1}, \"14\": {\"H\": 1}, \"15\": {\"H\": 1}, \"16\": {\"H\": 1}, \"17\": {\"H\": 1}, \"18\": {\"H\": 1}, \"19\": {\"H\": 1}, \"20\": {\"C\": 1}, \"21\": {\"C\": 1}, \"22\": {\"C\": 1}, \"23\": {\"C\": 1}, \"24\": {\"C\": 1}, \"25\": {\"C\": 1}, \"26\": {\"C\": 1}, \"27\": {\"C\": 1}, \"28\": {\"C\": 1}, \"29\": {\"C\": 1}, \"30\": {\"C\": 1}, \"31\": {\"C\": 1}, \"32\": {\"C\": 1}, \"33\": {\"C\": 1}, \"34\": {\"C\": 1}, \"35\": {\"C\": 1}, \"36\": {\"C\": 1}, \"37\": {\"C\": 1}, \"38\": {\"C\": 1}, \"39\": {\"C\": 1}, \"40\": {\"C\": 1}, \"41\": {\"C\": 1}, \"42\": {\"C\": 1}, \"43\": {\"C\": 1}, \"44\": {\"C\": 1}, \"45\": {\"C\": 1}, \"46\": {\"C\": 1}, \"47\": {\"C\": 1}, \"48\": {\"C\": 1}, \"49\": {\"C\": 1}, \"50\": {\"C\": 1}, \"51\": {\"C\": 1}, \"52\": {\"C\": 1}, \"53\": {\"C\": 1}, \"54\": {\"C\": 1}, \"55\": {\"C\": 1}, \"56\": {\"S\": 1}, \"57\": {\"S\": 1}, \"58\": {\"N\": 1}, \"59\": {\"N\": 1}, \"60\": {\"N\": 1}, \"61\": {\"N\": 1}, \"62\": {\"N\": 1}, \"63\": {\"N\": 1}, \"64\": {\"O\": 1}, \"65\": {\"O\": 1}, \"66\": {\"O\": 1}, \"67\": {\"O\": 1}, \"68\": {\"O\": 1}, \"69\": {\"O\": 1}, \"70\": {\"O\": 1}, \"71\": {\"O\": 1}, \"72\": {\"O\": 1}, \"73\": {\"O\": 1}, \"74\": {\"O\": 1}, \"75\": {\"O\": 1}, \"76\": {\"O\": 1}, \"77\": {\"O\": 1}, \"78\": {\"F\": 1}, \"79\": {\"F\": 1}, \"80\": {\"F\": 1}, \"81\": {\"F\": 1}}" energy=-565.0590209960938 free_energy=-565.0590209960938 stress="-0.0013132969615980983 0.0003833482915069908 0.00012833959772251546 0.0003833482915069908 -0.0016563356621190906 0.00023869953292887658 0.00012833959772251546 0.00023869953292887658 -0.0015884324675425887" pbc="T T T"
Zn       5.33776027       5.60642249       8.61992387        0      -0.02579712      -0.15453678       0.10328115
Zn       5.34580329       8.41625184       8.74644570        1      -0.02113529       0.16250585       0.05523147
H        3.99224923      10.61245932       7.39262088        2       0.04262238       0.02201810       0.00300638
H        3.92471123      13.11542637       7.38628154        3       0.03462523      -0.00940342       0.05582491
H        7.03791633      13.04369246      10.41173165        4      -0.09116220      -0.13087542      -0.07301557
H        3.77088307       0.94914883       6.90593097        5       0.00684544       0.09464356       0.02611640
H        6.88144060       0.90650628       9.91755360        6      -0.02933660       0.00907852      -0.04152445
H        6.77255854       3.43928454       9.92320900        7      -0.02795313      -0.00200861      -0.02530561
H        5.07976905       9.37331543       4.58082610        8      -0.01659475       0.03706741       0.04054084
H        5.05378388       9.57713994       2.07486903        9      -0.00014147      -0.00954650       0.01083684
H        5.20553162       5.27608607       1.77904473       10      -0.01928245       0.00811677       0.04941837
H        5.36840590       8.71478614      15.56652202       11      -0.00785227       0.02353229       0.01205449
H        5.28108939       4.40965330      15.31802053       12      -0.00119370      -0.01234841      -0.02282123
H        5.32439467       4.59182558      12.80668041       13       0.00208465      -0.06182972      -0.02486772
H        8.34771985       8.71796930       6.62373206       14      -0.17142694      -0.02882304       0.06973906
H        2.26872328       8.97544944       6.80151232       15      -0.03736140      -0.01963224       0.06393461
H        1.12337708       5.45696050       9.83220743       16      -0.00798628      -0.03935868       0.03106026
H        9.64582752       5.35110450       9.77955443       17      -0.06125303      -0.11440198       0.09157972
H        8.19778862      12.12935266       6.01204685       18      -0.00209654       0.18006456       0.07531686
H        2.33469945       9.68496437       3.43054774       19      -0.13417327       0.02355299      -0.11102764
C        5.22987492       7.19021883       6.09054897       20      -0.06639300       0.05432540      -0.16469371
C        2.73035810       7.15647584       8.64131627       21      -0.11266950       0.17652950      -0.06386239
C        5.38315650       6.75553260      11.27336762       22       0.01971301      -0.13937904       0.26982015
C        7.94529464       6.92182180       8.52555013       23       0.13177299      -0.09333941      -0.02793185
C        4.63410382      11.19906960       8.05078120       24      -0.00609186       0.00275743      -0.03020570
C        4.60617650      12.58042921       8.04647315       25      -0.11440469      -0.07675937      -0.12740694
C        5.47501295      13.26506509       8.90849127       26       0.24324979       0.09148261       0.24206486
C        6.34522697      12.54032596       9.73213161       27      -0.06067784       0.10628262      -0.06158683
C        6.28868549      11.15328201       9.65106949       28       0.27611947       0.39962333       0.27475864
C        4.44657677       1.46213184       7.59011373       29       0.21606311      -0.02610025       0.14241296
C        5.33077251       0.75308850       8.41066352       30      -0.36194140      -0.24181062      -0.29808709
C        6.19128048       1.44799649       9.27265646       31       0.19394550       0.07360154       0.17607073
C        6.13763238       2.82867549       9.28133786       32      -0.11564574      -0.03473446      -0.07091203
C        4.47749612       2.85012932       7.68142180       33      -0.16486877      -0.37560296      -0.13044851
C        5.15391054       7.23598668       4.59209075       34       0.02806548       0.07307830       0.13438414
C        5.08361144       8.49012701       3.94432079       35       0.04193700      -0.01724458       0.08967173
C        5.06912716       8.60545592       2.56761184       36       0.01386406      -0.02400768       0.03369325
C        5.12212434       7.43855559       1.77847737       37       0.02056156      -0.24047133      -0.14524129
C        5.16516465       6.17804465       2.39051679       38       0.04735820       0.15184782      -0.05695713
C        5.18765186       6.09602730       3.77702835       39      -0.05120361      -0.28397802      -0.00378688
C        5.35601947       7.80429374      14.97026764       40       0.03101902      -0.14453824      -0.07457408
C        5.31398852       6.54951001      15.59411043       41       0.04822194       0.25797737      -0.02413576
C        5.31149777       5.37375235      14.81432711       42      -0.02139279       0.07755822      -0.01394135
C        5.33814754       5.47967893      13.43504950       43      -0.01202571       0.04895830      -0.00311136
C        5.37492127       6.72699979      12.77538295       44       0.02112878      -0.01830867      -0.03099272
C        5.39214044       7.87751061      13.58310814       45      -0.06794415      -0.04521443      -0.04928751
C        9.43681967       6.97263693       8.41040934       46       0.21925786      -0.23135561       0.17881447
C       10.11920254       7.92016469       7.58556889       47      -0.12869412       0.27258301      -0.32827535
C       10.17632750       6.08437014       9.18152268       48       0.25506586       0.17167915      -0.14414528
C        9.42693365       8.77052209       6.67759706       49       0.34005859      -0.50834012       0.59589565
C       10.08851315       9.66887616       5.86749958       50       0.01291971       0.13835469      -0.28560901
C        1.24178354       7.10264953       8.48821338       51      -0.10443318       0.09897380      -0.08818412
C        0.55419323       6.15018703       9.21440195       52      -0.34701580      -0.16098142       0.11259301
C        0.52225229       7.98929387       7.62460086       53       0.07895686       0.22162363      -0.09193993
C        1.18177961       8.91546000       6.77411782       54      -0.04481587      -0.46949559       0.38081217
C        0.48798175       9.74197428       5.91266566       55      -0.11371491       0.20293754      -0.04170909
S        9.01728252      10.61971599       4.78141374       56       1.06622910       0.43930715       0.70216465
S        1.50066435      10.88892507       4.97315904       57      -0.71638256      -0.69077504      -0.19936454
N        5.46838359      10.49160738       8.85520098       58      -0.34995151      -0.40116647      -0.31816116
N        5.56064012      14.67315289       9.03112598       59       0.06027724      -0.38731694       0.02844083
N        5.25456103      -0.65913786       8.28898726       60      -0.02989717       0.50983435      -0.05950224
N        5.28074621       3.52388497       8.48868658       61       0.31649011       0.30243903       0.23801157
N        5.15377390       7.41183682       0.36726731       62      -0.03344609      -0.11018419       0.35818002
N        5.28287935       6.58953262      17.00128981       63      -0.02769886       0.05333002      -0.18605208
O        5.42911977       6.06308980       6.64176824       64       0.01632381       0.05469641      -0.08012553
O        5.09455160       8.30487048       6.69527636       65       0.03252274      -0.05471957      -0.02065078
O        3.27215820       8.30411213       8.77199928       66       0.01928455      -0.08043540      -0.05361868
O        3.32260180       6.03175440       8.64952020       67       0.18991774      -0.05199009       0.01856542
O        5.41948521       7.88755704      10.70520033       68       0.00481982       0.19327849      -0.08673780
O        5.34977951       5.62387638      10.68462465       69      -0.00189109      -0.00422114      -0.03629261
O        7.41271107       5.77857671       8.71074208       70      -0.07273793       0.10125116      -0.00891246
O        7.33338403       8.03715869       8.46773672       71      -0.13941097       0.04016864      -0.05167300
O        9.01248185      12.08658413       5.47167691       72      -0.25589234       0.29790908       0.28952932
O        9.63136206      10.76194533       3.49482830       73       0.49878404      -0.12030922      -1.20443869
O        7.67617438      10.10356832       4.92318890       74      -1.34551966      -0.55686671       0.00168271
O        1.53327656      10.24949588       3.49746756       75       0.30560088      -0.41940245      -0.53669381
O        0.82962584      12.15268811       4.87489512       76      -0.60425419       1.16635573       0.08513753
O        2.84640019      10.81622871       5.49800243       77       1.28600621       0.01619040       0.49409276
F        7.10517752      10.41944730      10.42012867       78       0.11303766      -0.14894034       0.13986181
F        3.64439043       3.57066604       6.92096462       79      -0.12507899       0.16119990      -0.13603911
F        5.23264012       4.84287789       4.30587959       80       0.00087389       0.22293067      -0.08272862
F        5.42918546       9.11730271      13.03935277       81       0.01521698       0.00110917       0.04197873
82
Lattice="11.0267153 0.0 0.0 -0.5078599251288318 15.950660052716385 0.0 0.10636455869434003 -1.9637966060179595 17.186052227875063" Properties=species:S:1:pos:R:3:spacegroup_kinds:I:1:forces:R:3 spacegroup="P 1" unit_cell=conventional occupancy="_JSON {\"0\": {\"Zn\": 1}, \"1\": {\"Zn\": 1}, \"2\": {\"H\": 1}, \"3\": {\"H\": 1}, \"4\": {\"H\": 1}, \"5\": {\"H\": 1}, \"6\": {\"H\": 1}, \"7\": {\"H\": 1}, \"8\": {\"H\": 1}, \"9\": {\"H\": 1}, \"10\": {\"H\": 1}, \"11\": {\"H\": 1}, \"12\": {\"H\": 1}, \"13\": {\"H\": 1}, \"14\": {\"H\": 1}, \"15\": {\"H\": 1}, \"16\": {\"H\": 1}, \"17\": {\"H\": 1}, \"18\": {\"H\": 1}, \"19\": {\"H\": 1}, \"20\": {\"C\": 1}, \"21\": {\"C\": 1}, \"22\": {\"C\": 1}, \"23\": {\"C\": 1}, \"24\": {\"C\": 1}, \"25\": {\"C\": 1}, \"26\": {\"C\": 1}, \"27\": {\"C\": 1}, \"28\": {\"C\": 1}, \"29\": {\"C\": 1}, \"30\": {\"C\": 1}, \"31\": {\"C\": 1}, \"32\": {\"C\": 1}, \"33\": {\"C\": 1}, \"34\": {\"C\": 1}, \"35\": {\"C\": 1}, \"36\": {\"C\": 1}, \"37\": {\"C\": 1}, \"38\": {\"C\": 1}, \"39\": {\"C\": 1}, \"40\": {\"C\": 1}, \"41\": {\"C\": 1}, \"42\": {\"C\": 1}, \"43\": {\"C\": 1}, \"44\": {\"C\": 1}, \"45\": {\"C\": 1}, \"46\": {\"C\": 1}, \"47\": {\"C\": 1}, \"48\": {\"C\": 1}, \"49\": {\"C\": 1}, \"50\": {\"C\": 1}, \"51\": {\"C\": 1}, \"52\": {\"C\": 1}, \"53\": {\"C\": 1}, \"54\": {\"C\": 1}, \"55\": {\"C\": 1}, \"56\": {\"S\": 1}, \"57\": {\"S\": 1}, \"58\": {\"N\": 1}, \"59\": {\"N\": 1}, \"60\": {\"N\": 1}, \"61\": {\"N\": 1}, \"62\": {\"N\": 1}, \"63\": {\"N\": 1}, \"64\": {\"O\": 1}, \"65\": {\"O\": 1}, \"66\": {\"O\": 1}, \"67\": {\"O\": 1}, \"68\": {\"O\": 1}, \"69\": {\"O\": 1}, \"70\": {\"O\": 1}, \"71\": {\"O\": 1}, \"72\": {\"O\": 1}, \"73\": {\"O\": 1}, \"74\": {\"O\": 1}, \"75\": {\"O\": 1}, \"76\": {\"O\": 1}, \"77\": {\"O\": 1}, \"78\": {\"F\": 1}, \"79\": {\"F\": 1}, \"80\": {\"F\": 1}, \"81\": {\"F\": 1}}" energy=-565.0609741210938 free_energy=-565.0609741210938 stress="-0.001156067126430571 0.000578876759391278 0.00010578833462204784 0.000578876759391278 -0.0016397833824157715 0.000254815531661734 0.00010578833462204784 0.000254815531661734 -0.0014371818397194147" pbc="T T T"
Zn       5.33854661       5.60792545       8.62228633        0      -0.01848412      -0.16436149       0.07793229
Zn       5.34532404       8.41776391       8.74582295        1      -0.03176747       0.15469103       0.04439565
H        3.99502317      10.61041193       7.39040504        2       0.08018332       0.09401286       0.05716581
H        3.92279088      13.11451870       7.38919485        3      -0.04010633       0.04883811      -0.02655285
H        7.03891215      13.04464454      10.41335783        4      -0.10996848      -0.15261261      -0.10387051
H        3.76913911       0.94649388       6.90498915        5       0.02471772       0.11510907       0.04572116
H        6.88294564       0.90679162       9.91960716        6      -0.08129276       0.06178064      -0.08602019
H        6.77262080       3.43660937       9.92388774        7      -0.05977840       0.00575471      -0.05947723
H        5.08152367       9.37169255       4.58314226        8      -0.00962807       0.07059751       0.05069339
H        5.05321232       9.57575353       2.07370150        9       0.00927826      -0.01281308       0.02113168
H        5.20535176       5.27854510       1.78065256       10      -0.01035335      -0.06219460      -0.00541298
H        5.37010286       8.71499244      15.56700730       11      -0.01362160       0.10946660       0.06268795
H        5.28279879       4.41091678      15.31777036       12       0.00067527      -0.03985770      -0.01023357
H        5.32343853       4.59407434      12.80906754       13       0.01299473      -0.20934422      -0.13910271
H        8.34632198       8.72036872       6.62108889       14      -0.04464903      -0.03428045       0.10171118
H        2.27073752       8.97760887       6.79864826       15      -0.12545261      -0.03056563       0.07608321
H        1.12070692       5.45770992       9.83259811       16       0.09513812      -0.14732590       0.12492972
H        9.64683689       5.34882520       9.77739255       17      -0.06668999      -0.10609347       0.09917394
H        8.19521601      12.12754949       6.00999239       18      -0.08275853       0.20285589       0.13631010
H        2.33748587       9.68749564       3.43132379       19      -0.14268857       0.02972203      -0.10585508
C        5.22950457       7.19049979       6.09135855       20      -0.05140345       0.05519388      -0.25674006
C        2.73085500       7.15689784       8.63959846       21      -0.16889259       0.25132567      -0.03389943
C        5.38277979       6.75789762      11.27526279       22       0.00882371      -0.21784917       0.04819608
C        7.94413182       6.92480245       8.52583524       23       0.29178971      -0.39211190      -0.00174954
C        4.63593533      11.20107259       8.05090161       24      -0.13660195      -0.07876471      -0.14251593
C        4.60458513      12.58249786       8.04517710       25       0.03195558      -0.13553359      -0.00624635
C        5.47627948      13.26806263       8.90573296       26       0.24596849      -0.09842113       0.27720380
C        6.34791965      12.54027313       9.73084216       27      -0.10562398       0.14360416      -0.11713568
C        6.29123663      11.15282347       9.64873160       28       0.24097915       0.38634297       0.29141086
C        4.44428635       1.46125009       7.59002887       29       0.24894133      -0.02626130       0.13377905
C        5.33007909       0.75089456       8.41057246       30      -0.32671523      -0.09023775      -0.24109520
C        6.19009575       1.44964552       9.27453017       31       0.17867593      -0.06080088       0.11779599
C        6.13508142       2.83004620       9.27875423       32      -0.00282037      -0.09236300       0.08477719
C        4.47636279       2.85070381       7.67890575       33      -0.10822642      -0.48136362      -0.00706327
C        5.15477446       7.23592273       4.59200142       34       0.01245825      -0.02365175       0.09620297
C        5.08651451       8.49037831       3.94587493       35       0.03687172      -0.06934905      -0.00857818
C        5.07198170       8.60452521       2.56783942       36      -0.02336669      -0.04847061       0.01661400
C        5.11918613       7.43653461       1.77606972       37       0.07864273      -0.08285075      -0.07097307
C        5.16730643       6.17933968       2.38963339       38      -0.00665033       0.08213231      -0.04996619
C        5.18533774       6.09345160       3.77459437       39      -0.00906334      -0.15631574       0.13335782
C        5.35482317       7.80725473      14.97267401       40       0.05063557      -0.38224983      -0.24273521
C        5.31168348       6.54917419      15.59322622       41       0.08278751       0.39507139       0.01969919
C        5.31321380       5.37376784      14.81359100       42      -0.03037722       0.08740531      -0.07232167
C        5.34096283       5.47773031      13.43345960       43      -0.04571605       0.29063424       0.14013758
C        5.37367477       6.72914229      12.77507262       44       0.05930215      -0.20610371      -0.04618010
C        5.39469808       7.87473717      13.58278562       45      -0.11321216       0.22637717       0.08735749
C        9.43796253       6.97010592       8.41224586       46       0.12982175      -0.06520269       0.04436298
C       10.11843274       7.91724351       7.58299642       47      -0.02339694       0.25716037      -0.20655954
C       10.17667960       6.08473916       9.18183640       48       0.36748195       0.06899498      -0.06637557
C        9.42936238       8.77222424       6.68038765       49       0.10890280      -0.49782664       0.48374021
C       10.08591485       9.67127353       5.86544735       50       0.11028875       0.08371216      -0.18434417
C        1.24245580       7.10481494       8.48701096       51      -0.11669862      -0.12658206       0.09676035
C        0.55615849       6.14798976       9.21680368       52      -0.45528615       0.09144060      -0.10339190
C        0.52351986       7.98771403       7.62719831       53      -0.03818478       0.31157595      -0.22421366
C        1.18111026       8.91495376       6.77618033       54       0.00870368      -0.39508301       0.30909908
C        0.48601670       9.74230429       5.91386699       55      -0.06801287       0.20991918      -0.05633521
S        9.01510049      10.62207373       4.78363852       56       1.11915421       0.41648191       0.48655990
S        1.50066534      10.89060436       4.97083285       57      -0.59182239      -0.77811879      -0.05043613
N        5.46598071      10.49067358       8.85447912       58      -0.20154512      -0.32479408      -0.23116197
N        5.55954008      14.67143248       9.03001669       59       0.15144503      -0.30138358       0.10839508
N        5.25646171      -0.65841841       8.28859634       60      -0.11809303       0.48663259      -0.13793243
N        5.27831686       3.52311005       8.49077439       61       0.23623289       0.37324539       0.10328038
N        5.15130087       7.41230748       0.36532012       62      -0.04337708      -0.09742811       0.37688702
N        5.28277038       6.59159008      17.00177065       63      -0.04472499      -0.01913616      -0.23020807
O        5.42917797       6.06214071       6.63921962       64       0.00294212       0.07038635      -0.00745805
O        5.09575671       8.30722218       6.69291581       65       0.03717572      -0.09341958       0.02732614
O        3.27329346       8.30361219       8.77294088       66       0.03274612      -0.04051152      -0.06555913
O        3.32088740       6.03358590       8.65025471       67       0.26000121      -0.16413124       0.00020552
O        5.42074367       7.89030645      10.70386842       68       0.00632461       0.07781917      -0.00551012
O        5.34767748       5.62292791      10.68309611       69       0.00733013       0.20097211       0.10360183
O        7.41548086       5.77745842       8.70868899       70      -0.11247928       0.15778804      -0.01290838
O        7.33407788       8.03560316       8.46901139       71      -0.25043297       0.22947130      -0.05974851
O        9.00968751      12.08760410       5.47302435       72      -0.18293780       0.30335706       0.24540977
O        9.62862325      10.76357639       3.49191527       73       0.42859194      -0.12921187      -1.02620220
O        7.67371810      10.10409852       4.92045722       74      -1.32465816      -0.54890919       0.01237972
O        1.53389154      10.24907244       3.50020344       75       0.30780262      -0.44358501      -0.60218990
O        0.83158655      12.15356038       4.87692955       76      -0.64533359       1.23291051       0.07266238
O        2.84935632      10.81794174       5.49693300       77       1.17274356       0.01593755       0.45194033
F        7.10756500      10.41922871      10.42067234       78       0.07015134      -0.12975045       0.09209497
F        3.64341306       3.57024271       6.92274676       79      -0.18136668       0.21865895      -0.19993468
F        5.23097800       4.84005219       4.30376648       80      -0.00804918       0.24529006      -0.10456082
F        5.42985711       9.11978211      13.04188644       81       0.02364812      -0.10544878       0.04958098
82
Lattice="11.0267153 0.0 0.0 -0.5078599251288318 15.950660052716385 0.0 0.10636455869434003 -1.9637966060179595 17.186052227875063" Properties=species:S:1:pos:R:3:spacegroup_kinds:I:1:forces:R:3 spacegroup="P 1" unit_cell=conventional occupancy="_JSON {\"0\": {\"Zn\": 1}, \"1\": {\"Zn\": 1}, \"2\": {\"H\": 1}, \"3\": {\"H\": 1}, \"4\": {\"H\": 1}, \"5\": {\"H\": 1}, \"6\": {\"H\": 1}, \"7\": {\"H\": 1}, \"8\": {\"H\": 1}, \"9\": {\"H\": 1}, \"10\": {\"H\": 1}, \"11\": {\"H\": 1}, \"12\": {\"H\": 1}, \"13\": {\"H\": 1}, \"14\": {\"H\": 1}, \"15\": {\"H\": 1}, \"16\": {\"H\": 1}, \"17\": {\"H\": 1}, \"18\": {\"H\": 1}, \"19\": {\"H\": 1}, \"20\": {\"C\": 1}, \"21\": {\"C\": 1}, \"22\": {\"C\": 1}, \"23\": {\"C\": 1}, \"24\": {\"C\": 1}, \"25\": {\"C\": 1}, \"26\": {\"C\": 1}, \"27\": {\"C\": 1}, \"28\": {\"C\": 1}, \"29\": {\"C\": 1}, \"30\": {\"C\": 1}, \"31\": {\"C\": 1}, \"32\": {\"C\": 1}, \"33\": {\"C\": 1}, \"34\": {\"C\": 1}, \"35\": {\"C\": 1}, \"36\": {\"C\": 1}, \"37\": {\"C\": 1}, \"38\": {\"C\": 1}, \"39\": {\"C\": 1}, \"40\": {\"C\": 1}, \"41\": {\"C\": 1}, \"42\": {\"C\": 1}, \"43\": {\"C\": 1}, \"44\": {\"C\": 1}, \"45\": {\"C\": 1}, \"46\": {\"C\": 1}, \"47\": {\"C\": 1}, \"48\": {\"C\": 1}, \"49\": {\"C\": 1}, \"50\": {\"C\": 1}, \"51\": {\"C\": 1}, \"52\": {\"C\": 1}, \"53\": {\"C\": 1}, \"54\": {\"C\": 1}, \"55\": {\"C\": 1}, \"56\": {\"S\": 1}, \"57\": {\"S\": 1}, \"58\": {\"N\": 1}, \"59\": {\"N\": 1}, \"60\": {\"N\": 1}, \"61\": {\"N\": 1}, \"62\": {\"N\": 1}, \"63\": {\"N\": 1}, \"64\": {\"O\": 1}, \"65\": {\"O\": 1}, \"66\": {\"O\": 1}, \"67\": {\"O\": 1}, \"68\": {\"O\": 1}, \"69\": {\"O\": 1}, \"70\": {\"O\": 1}, \"71\": {\"O\": 1}, \"72\": {\"O\": 1}, \"73\": {\"O\": 1}, \"74\": {\"O\": 1}, \"75\": {\"O\": 1}, \"76\": {\"O\": 1}, \"77\": {\"O\": 1}, \"78\": {\"F\": 1}, \"79\": {\"F\": 1}, \"80\": {\"F\": 1}, \"81\": {\"F\": 1}}" energy=-565.0589599609375 free_energy=-565.0589599609375 stress="-0.0011449087178334594 0.0006512287072837353 0.00011462632392067462 0.0006512287072837353 -0.001731532858684659 0.00035035808105021715 0.00011462632392067462 0.00035035808105021715 -0.0014332483988255262" pbc="T T T"
Zn       5.33742981       5.60990060       8.62473311        0      -0.01762472      -0.17735258       0.02972758
Zn       5.34265877       8.41742719       8.74710322        1      -0.00952786       0.16304855       0.02675733
H        3.99634223      10.60978468       7.39043083        2       0.08227751       0.12622967       0.06094840
H        3.92222052      13.11593449       7.39134245        3      -0.08863512       0.07962226      -0.07464163
H        7.03908235      13.04312575      10.41538430        4      -0.16035828      -0.17061932      -0.16151829
H        3.77171131       0.94683735       6.90771702        5      -0.05828205       0.05104756      -0.03268719
H        6.88249249       0.90632284       9.91775709        6      -0.08652934       0.06877520      -0.08645529
H        6.77271728       3.43627056       9.92162365        7      -0.04609664      -0.00169322      -0.04320083
H        5.08258796       9.37174297       4.58193897        8      -0.01472449       0.01614502       0.00869557
H        5.05320037       9.57802679       2.07280470        9       0.01333450      -0.08256121       0.05177454
H        5.20788925       5.27772513       1.77943139       10      -0.00975441      -0.08999492      -0.01832432
H        5.37099771       8.71684093      15.56892827       11      -0.00718457       0.08852476       0.03532969
H        5.28205339       4.41283363      15.31475036       12       0.00588115      -0.09416242       0.01955800
H        5.32551829       4.59618487      12.81172982       13       0.00703500      -0.25793338      -0.16171651
H        8.34496518       8.71935052       6.62173307       14      -0.02011721      -0.02126441       0.08646716
H        2.27172908       8.97704015       6.79711931       15      -0.12017508      -0.02397251       0.08390666
H        1.11867507       5.45899889       9.83202444       16       0.14724462      -0.23259252       0.19420235
H        9.64475614       5.34627076       9.77445828       17      -0.06236542      -0.06652118       0.07728546
H        8.19758778      12.12469034       6.01139351       18      -0.27071446       0.22091091       0.26277706
H        2.34023513       9.68847481       3.42919655       19      -0.16014570       0.04694517      -0.09151049
C        5.23093270       7.19241293       6.09435195       20      -0.09758209      -0.01911043      -0.44508529
C        2.73046700       7.15926628       8.63920385       21      -0.28855735       0.09904443      -0.04856175
C        5.38414709       6.75543945      11.27420464       22      -0.04324699      -0.09871188       0.04110748
C        7.94394914       6.92630321       8.52628754       23       0.31278995      -0.56227005      -0.01744751
C        4.63546986      11.20398285       8.05070917       24      -0.11372617      -0.28697610      -0.10222223
C        4.60215904      12.58375790       8.04552962       25       0.07647169      -0.14473315       0.02698833
C        5.47374101      13.26756687       8.90545142       26       0.27724832      -0.07911196       0.29663047
C        6.34681587      12.53927593       9.72982759       27      -0.04696331       0.26929876      -0.04404822
C        6.29246027      11.15455687       9.65063953       28       0.03079644       0.21968478       0.09312397
C        4.44386849       1.45907618       7.59142981       29       0.25114915       0.22518639       0.09422089
C        5.32979728       0.75193408       8.40804709       30      -0.23577596      -0.16195089      -0.09305541
C        6.18914685       1.45085504       9.27434393       31       0.18815506      -0.18841930       0.08013663
C        6.13531439       2.82886991       9.27747777       32       0.05453265      -0.02425030       0.16671468
C        4.47756201       2.85110778       7.67662111       33      -0.02849957      -0.48846486       0.11609644
C        5.15408060       7.23711626       4.59261488       34       0.04335095      -0.07590750       0.12565303
C        5.08634277       8.48764322       3.94483268       35       0.03839419       0.08536264      -0.02423957
C        5.07272141       8.60328974       2.56501753       36      -0.03274098       0.09930941       0.11366339
C        5.12068228       7.43916519       1.77545079       37       0.09221043      -0.38769174      -0.13376781
C        5.16932955       6.17701535       2.38862804       38      -0.00963372       0.29177022       0.03386757
C        5.18711625       6.09389111       3.77621162       39      -0.03224627      -0.13543183      -0.02985875
C        5.35717105       7.80980247      14.97186414       40       0.02643138      -0.47016048      -0.07588845
C        5.31314445       6.54901670      15.59384299       41       0.09563990       0.52029270       0.00389719