67
Lattice="7.77257006 0.0 0.0 -2.8094093460736556 8.32963563933492 0.0 -0.21681871632746313 -3.4600981280694256 10.575958446559023" Properties=species:S:1:pos:R:3:spacegroup_kinds:I:1:forces:R:3 spacegroup="P 1" unit_cell=conventional occupancy="_JSON {\"0\": {\"Cd\": 1}, \"1\": {\"H\": 1}, \"2\": {\"H\": 1}, \"3\": {\"H\": 1}, \"4\": {\"H\": 1}, \"5\": {\"H\": 1}, \"6\": {\"H\": 1}, \"7\": {\"H\": 1}, \"8\": {\"H\": 1}, \"9\": {\"H\": 1}, \"10\": {\"H\": 1}, \"11\": {\"H\": 1}, \"12\": {\"H\": 1}, \"13\": {\"H\": 1}, \"14\": {\"H\": 1}, \"15\": {\"H\": 1}, \"16\": {\"H\": 1}, \"17\": {\"H\": 1}, \"18\": {\"H\": 1}, \"19\": {\"H\": 1}, \"20\": {\"H\": 1}, \"21\": {\"H\": 1}, \"22\": {\"H\": 1}, \"23\": {\"H\": 1}, \"24\": {\"H\": 1}, \"25\": {\"H\": 1}, \"26\": {\"H\": 1}, \"27\": {\"H\": 1}, \"28\": {\"H\": 1}, \"29\": {\"C\": 1}, \"30\": {\"C\": 1}, \"31\": {\"C\": 1}, \"32\": {\"C\": 1}, \"33\": {\"C\": 1}, \"34\": {\"C\": 1}, \"35\": {\"C\": 1}, \"36\": {\"C\": 1}, \"37\": {\"C\": 1}, \"38\": {\"C\": 1}, \"39\": {\"C\": 1}, \"40\": {\"C\": 1}, \"41\": {\"C\": 1}, \"42\": {\"C\": 1}, \"43\": {\"C\": 1}, \"44\": {\"C\": 1}, \"45\": {\"C\": 1}, \"46\": {\"C\": 1}, \"47\": {\"C\": 1}, \"48\": {\"C\": 1}, \"49\": {\"C\": 1}, \"50\": {\"C\": 1}, \"51\": {\"C\": 1}, \"52\": {\"C\": 1}, \"53\": {\"C\": 1}, \"54\": {\"C\": 1}, \"55\": {\"C\": 1}, \"56\": {\"C\": 1}, \"57\": {\"N\": 1}, \"58\": {\"N\": 1}, \"59\": {\"N\": 1}, \"60\": {\"N\": 1}, \"61\": {\"N\": 1}, \"62\": {\"N\": 1}, \"63\": {\"N\": 1}, \"64\": {\"N\": 1}, \"65\": {\"Cl\": 1}, \"66\": {\"Cl\": 1}}" energy=-432.943359375 free_energy=-432.943359375 stress="-0.0017273965058848262 -0.00040218737558461726 -0.0002500756236258894 -0.00040218737558461726 -0.002566197421401739 0.001011412125080824 -0.0002500756236258894 0.001011412125080824 -0.001005252473987639" pbc="T T T"
Cd       4.96314699       8.32963528       0.00001897        0      -0.00789752       0.00610778       0.00167729
H        4.58994914       1.04917523       1.37425260        1       0.00728157      -0.00700609      -0.07077779
H        0.15536735       3.81947652       9.20048960        2      -0.04222867       0.01437925       0.05287810
H        0.48255185       0.41694570       3.37417381        3       0.01568864      -0.01427417       0.05453672
H        4.26118266       4.45260209       7.19911923        4      -0.01144655       0.01604487      -0.05563087
H        6.33311282       1.24148564       5.22107614        5      -0.01405071      -0.00039935       0.02466181
H       -1.58828867       3.62875031       5.35359424        6       0.01123761       0.00004231      -0.01292303
H        3.15500710       1.85811375       3.11619705        7      -0.12230549      -0.02179347      -0.03706886
H        1.58966423       3.01225894       7.45859987        8       0.13719913       0.02956145       0.03328085
H        3.97701999       2.75686758       4.42069635        9      -0.01785253       0.01158838       0.03414067
H        0.76851950       2.11416609       6.15355357       10       0.02168950      -0.01323640      -0.03362020
H        2.37372894      -0.48442351       3.51697379       11      -0.00251013      -0.06782315      -0.02800274
H        2.37093234       5.35590607       7.05646490       12       0.00164736       0.06249692       0.02604893
H       -1.36575364       6.26153795       5.19561958       13       0.03039216      -0.04313717       0.01575562
H        6.11006883      -1.38966690       5.37837300       14      -0.04863699       0.01400372      -0.01812012
H        1.92078693      -1.74288531       7.61690362       15      -0.04206243      -0.05108831      -0.00616902
H        2.82482162       6.61414495       2.95845579       16       0.04547098       0.05809718       0.00310703
H        4.10727589       1.84695120       6.69414837       17       0.04202013       0.03401405       0.03200039
H        0.63772419       3.02391596       3.88067406       18      -0.04967674      -0.05122037      -0.03990923
H        3.39079732       1.26720239       9.07417663       19       0.00157565       0.03988836      -0.05348825
H        1.35627847       3.60295850       1.50035519       20      -0.00913756      -0.04120097       0.04347289
H        2.81449882      -0.38956738       9.41311110       21      -0.15691470      -0.07456702      -0.03270981
H        1.93137714       5.26070748       1.16247366       22       0.15285365       0.08225977       0.01578906
H        4.47062786      -2.27268304       9.60470170       23      -0.00818314      -0.04210413       0.00590302
H        0.27339969       7.14385807       0.97002036       24      -0.01265109       0.02445552      -0.00316939
H        5.97932377       1.53806507       8.55355856       25       0.05014229      -0.07530761      -0.02940088
H       -1.23452037       3.33243233       2.02025141       26      -0.04773996       0.07038718       0.03080878
H        0.32660877      -0.17349612       9.16307216       27       0.03341651      -0.02307418      -0.00140742
H        4.41713143       5.04465068       1.41226737       28      -0.02322745       0.00982214       0.00210064
C        5.36085987       0.99178785       2.13761657       29       0.07563151       0.07639007       0.03588338
C       -0.61763792       3.87774550       8.43766261       30      -0.07994236      -0.05224303      -0.03078881
C       -0.55405972       0.68054775       3.22867922       31       0.04548028       0.05250049       0.07531589
C        5.29797075       4.18998329       7.34593135       32      -0.04307684      -0.05160332      -0.08071530
C        6.28653506       1.09677195       4.14964513       33       0.09907345      -0.10661620      -0.04946798
C       -1.54197369       3.77259650       6.42551338       34      -0.10362074       0.11691353       0.04147905
C        3.83275474       1.76054001       3.97836465       35      -0.04577205      -0.00672087      -0.06862128
C        0.91354193       3.11061182       6.59556159       36       0.00022802      -0.01128003       0.07535684
C        3.28352418       0.79802616       4.99668191       37       0.05999250       0.11696111      -0.05477100
C        1.46033916       4.07259858       5.57589840       38       0.00631564      -0.07154969       0.16140768
C        2.54316193      -0.31931854       4.58222021       39      -0.03595196       0.02323988       0.08140388
C        2.20230279       5.19030879       5.99110532       40      -0.02113627      -0.08402371      -0.05544500
C        2.03518453      -1.21465046       5.52286104       41       0.03666593       0.02440460       0.04401550
C        2.70864097       6.08530166       5.05145712       42       0.03409903       0.05749309      -0.00789246
C        2.30435178      -1.03227368       6.88295282       43      -0.07311451      -0.01377791      -0.04972400
C        2.44149856       5.90430295       3.69284790       44      -0.02068810      -0.08905878      -0.05644421
C        3.07892701       0.05405198       7.31068292       45       0.00300569       0.05666424       0.05854208
C        1.66460193       4.81656812       3.26377023       46       0.07430848       0.01554265      -0.06124970
C        3.53921815       0.97619958       6.36110856       47      -0.05566479      -0.00136578      -0.01355074
C        1.20636637       3.89379318       4.21324615       48       0.02761783       0.01092198      -0.04502979
C        3.46239062       0.21523588       8.76058935       49      -0.02697176      -0.04381551       0.08975393
C        1.28247824       4.65507047       1.81240360       50       0.03276867       0.04596467      -0.02047181
C        5.19342067      -1.49118761       9.39255040       51      -0.02796090       0.00851573      -0.01395305
C       -0.44957664       6.36139587       1.18135458       52      -0.03518383      -0.01627780       0.02023583
C        6.00314672       0.48902934       8.82760439       53       0.08611058       0.02457535       0.03438455
C       -1.25741910       4.38136085       1.74611865       54      -0.15461794      -0.05414593      -0.02654308
C       -0.73771238      -0.36395679       9.13586206       55      -0.05408907       0.02712789       0.06325582
C        5.48192935       5.23408939       1.43797190       56       0.03190678      -0.08633161      -0.04122235
N        6.63079494       0.61986892       1.97938035       57       0.00745727      -0.15548967      -0.30556160
N       -1.88882068       4.25278357       8.59632784       58       0.11287458       0.09310278       0.24704662
N        5.11596860       1.29966510       3.44039866       59      -0.03646183       0.10807193       0.05758071
N       -0.37081192       3.57007712       7.13410310       60      -0.01741898      -0.08654765      -0.00087363
N        4.83715981      -0.23568444       9.00318059       61       0.03497347       0.04960129       0.00707376
N       -0.09287458       5.10505585       1.57160812       62      -0.02143514       0.03463900      -0.05441314
N        6.51644854      -1.60192868       9.48544284       63       0.12680712      -0.19565339      -0.00709231
N       -1.77527959       6.47083202       1.08909615       64       0.03369307       0.24062680       0.00135336
Cl       2.56891685       3.46958626       9.89279328       65      -0.11079944       0.04799663       0.11280461
Cl       2.17884733       1.40146199       0.68467898       66       0.10080201      -0.05166930      -0.11682643
67
Lattice="7.77257006 0.0 0.0 -2.8094093460736556 8.32963563933492 0.0 -0.21681871632746313 -3.4600981280694256 10.575958446559023" Properties=species:S:1:pos:R:3:spacegroup_kinds:I:1:forces:R:3 spacegroup="P 1" unit_cell=conventional occupancy="_JSON {\"0\": {\"Cd\": 1}, \"1\": {\"H\": 1}, \"2\": {\"H\": 1}, \"3\": {\"H\": 1}, \"4\": {\"H\": 1}, \"5\": {\"H\": 1}, \"6\": {\"H\": 1}, \"7\": {\"H\": 1}, \"8\": {\"H\": 1}, \"9\": {\"H\": 1}, \"10\": {\"H\": 1}, \"11\": {\"H\": 1}, \"12\": {\"H\": 1}, \"13\": {\"H\": 1}, \"14\": {\"H\": 1}, \"15\": {\"H\": 1}, \"16\": {\"H\": 1}, \"17\": {\"H\": 1}, \"18\": {\"H\": 1}, \"19\": {\"H\": 1}, \"20\": {\"H\": 1}, \"21\": {\"H\": 1}, \"22\": {\"H\": 1}, \"23\": {\"H\": 1}, \"24\": {\"H\": 1}, \"25\": {\"H\": 1}, \"26\": {\"H\": 1}, \"27\": {\"H\": 1}, \"28\": {\"H\": 1}, \"29\": {\"C\": 1}, \"30\": {\"C\": 1}, \"31\": {\"C\": 1}, \"32\": {\"C\": 1}, \"33\": {\"C\": 1}, \"34\": {\"C\": 1}, \"35\": {\"C\": 1}, \"36\": {\"C\": 1}, \"37\": {\"C\": 1}, \"38\": {\"C\": 1}, \"39\": {\"C\": 1}, \"40\": {\"C\": 1}, \"41\": {\"C\": 1}, \"42\": {\"C\": 1}, \"43\": {\"C\": 1}, \"44\": {\"C\": 1}, \"45\": {\"C\": 1}, \"46\": {\"C\": 1}, \"47\": {\"C\": 1}, \"48\": {\"C\": 1}, \"49\": {\"C\": 1}, \"50\": {\"C\": 1}, \"51\": {\"C\": 1}, \"52\": {\"C\": 1}, \"53\": {\"C\": 1}, \"54\": {\"C\": 1}, \"55\": {\"C\": 1}, \"56\": {\"C\": 1}, \"57\": {\"N\": 1}, \"58\": {\"N\": 1}, \"59\": {\"N\": 1}, \"60\": {\"N\": 1}, \"61\": {\"N\": 1}, \"62\": {\"N\": 1}, \"63\": {\"N\": 1}, \"64\": {\"N\": 1}, \"65\": {\"Cl\": 1}, \"66\": {\"Cl\": 1}}" energy=-432.9520263671875 free_energy=-432.9520263671875 stress="-0.001141292043030262 -0.00012391495693009347 8.382419764529914e-05 -0.00012391495693009347 -0.0018324159318581223 0.0010558795183897018 8.382419764529914e-05 0.0010558795183897018 -3.474730328889564e-05" pbc="T T T"
Cd       4.96254383       8.33000040      -0.00040789        0      -0.00763410       0.00649052       0.00186229
H        4.58929847       1.04994087       1.37232294        1       0.04005682      -0.00362641      -0.02196755
H        0.15460224       3.82040127       9.20102272        2      -0.04150423       0.00606396       0.03452012
H        0.48171434       0.41615642       3.37375662        3       0.02443197      -0.01282592       0.05853850
H        4.25892586       4.45394300       7.19757375        4       0.04177298       0.00468140      -0.04644705
H        6.33169602       1.24239410       5.22101933        5      -0.00181170      -0.01523729      -0.03757304
H       -1.58880189       3.62891111       5.35291410        6       0.00398644       0.00383293      -0.00574547
H        3.15253268       1.85722640       3.11486887        7      -0.09382302      -0.02229056      -0.01921334
H        1.59197081       3.01346033       7.45942416        8       0.07914501       0.02622060      -0.00763682
H        3.97534126       2.75823033       4.42055749        9      -0.02288010      -0.02335085       0.00830978
H        0.76820183       2.11494880       6.15169659       10       0.02529261      -0.00172980      -0.01636766
H        2.37212362      -0.48474299       3.51578994       11       0.00333837      -0.06134272       0.00814305
H        2.37087549       5.35793543       7.05610979       12      -0.00646714       0.05541010      -0.00987756
H       -1.36677685       6.26101426       5.19584912       13       0.04340403      -0.02324258       0.01747476
H        6.10741171      -1.38910608       5.37696115       14      -0.01346375       0.05804353       0.00184153
H        1.91920193      -1.74290516       7.61556222       15      -0.03996554      -0.04879060      -0.00579773
H        2.82516045       6.61572067       2.95870020       16       0.04249294       0.06029087      -0.01801704
H        4.10758604       1.84806761       6.69370302       17       0.01155835      -0.00590853       0.02111247
H        0.63540883       3.02365318       3.87964110       18      -0.02830553      -0.02393845      -0.03634439
H        3.39019095       1.26981276       9.07281366       19      -0.00722627      -0.01729752      -0.05433080
H        1.35572347       3.60317762       1.50055151       20      -0.00629410      -0.00717745       0.04378170
H        2.81172764      -0.39158486       9.41206886       21      -0.12007220      -0.04055500      -0.04953389
H        1.93398138       5.26247242       1.16326530       22       0.11656876       0.06692119       0.01861109
H        4.47017808      -2.27283543       9.60354248       23      -0.00069249      -0.02280977      -0.00124406
H        0.27185575       7.14500835       0.96922978       24      -0.02002268       0.00376579       0.00439642
H        5.97950408       1.53863855       8.55276249       25       0.05941297      -0.06062382      -0.02864944
H       -1.23676431       3.33352304       2.02081786       26      -0.05040073       0.01634148       0.03756028
H        0.32642439      -0.17240014       9.16282031       27       0.00549234      -0.02145050      -0.00453898
H        4.41552288       5.04555284       1.41101873       28       0.02226283       0.01399295       0.00151622
C        5.36069319       0.99389839       2.13784178       29       0.05375801       0.04549317      -0.04870471
C       -0.61837765       3.87690764       8.43739241       30      -0.06591123      -0.02837703      -0.00129808
C       -0.55415961       0.68164328       3.22826141       31       0.06135955       0.00456633      -0.02274749
C        5.29717594       4.19045796       7.34380339       32      -0.08703537       0.00759554       0.09826767
C        6.28695694       1.09580008       4.14781157       33       0.03987813      -0.05103904       0.09195846
C       -1.54400786       3.77407438       6.42496250       34      -0.03298464       0.08104329       0.01927096
C        3.83202297       1.76056443       3.97707800       35      -0.05997986       0.07420686      -0.06597844
C        0.91241496       3.11104795       6.59614199       36       0.04771829      -0.03137016       0.10172984
C        3.28393084       0.80050528       4.99491731       37      -0.03127314      -0.00947349       0.00110345
C        1.46004908       4.07260644       5.57772165       38      -0.02134169      -0.07891763      -0.02220112
C        2.54157678      -0.31850211       4.58207371       39       0.00307729       0.06386239       0.04329059
C        2.20153092       5.19055325       5.98982349       40       0.00841119      -0.04550166       0.01249322
C        2.03467240      -1.21455235       5.52287580       41       0.01336139       0.02026582      -0.00448862
C        2.70843203       6.08632944       5.05071974       42      -0.02920768      -0.02120471      -0.08884837
C        2.30279045      -1.03210987       6.88167399       43      -0.02418054       0.02994815       0.02516553
C        2.44088695       5.90453462       3.69060395       44       0.01882212      -0.05194664       0.05104369
C        3.07886543       0.05510847       7.31073283       45      -0.05773951      -0.00725485       0.02701010
C        1.66468266       4.81727243       3.26267665       46       0.03616567      -0.02173038      -0.07021810
C        3.53699678       0.97675160       6.36067379       47       0.01719315       0.07583578      -0.02103135
C        1.20625905       3.89365139       4.21129262       48       0.02992244       0.01048653       0.08191862
C        3.46136845       0.21543531       8.76085497       49      -0.04829066      -0.00029579       0.09642851
C        1.28177169       4.65679852       1.81140707       50       0.05851337       0.00815061      -0.03293723
C        5.19273294      -1.49040912       9.39095459       51       0.06260602      -0.00457716       0.00219282
C       -0.45128375       6.36171773       1.18086679       52       0.05994695       0.01103137       0.01568052
C        6.00410208       0.49029602       8.82769864       53       0.00477254       0.02253824       0.03272685
C       -1.26016134       4.38019001       1.74457355       54      -0.04126251       0.02912802      -0.04560319
C       -0.73880187      -0.36273809       9.13562152       55       0.05605218      -0.03848580       0.08180103
C        5.48206186       5.23291515       1.43577086       56      -0.07756269       0.01663148      -0.05591942
N        6.63040210       0.61878700       1.97663554       57      -0.03578661      -0.09791175      -0.19203737
N       -1.88760406       4.25516773       8.59920115       58       0.03644910       0.05568336       0.05557200
N        5.11480055       1.30101704       3.44095718       59       0.03250042       0.07874602      -0.02341130
N       -0.37200873       3.56955467       7.13365272       60      -0.01933610      -0.08447374       0.01371610
N        4.83632473      -0.23344918       9.00326886       61       0.08822551      -0.03117672       0.02536178
N       -0.09350239       5.10519638       1.56987379       62      -0.05818820       0.01640868      -0.04422235
N        6.51845735      -1.60371648       9.48444172       63      -0.04128674      -0.08198997      -0.04627664
N       -1.77498037       6.47355876       1.08864969       64      -0.04817789       0.12208229       0.01844823
Cl       2.56598238       3.46797633       9.89571903       65      -0.10393450       0.05305583       0.11038321
Cl       2.18131213       1.40148327       0.68170929       66       0.09609263      -0.05089156      -0.11402395
67
Lattice="7.77257006 0.0 0.0 -2.8094093460736556 8.32963563933492 0.0 -0.21681871632746313 -3.4600981280694256 10.575958446559023" Properties=species:S:1:pos:R:3:spacegroup_kinds:I:1:forces:R:3 spacegroup="P 1" unit_cell=conventional occupancy="_JSON {\"0\": {\"Cd\": 1}, \"1\": {\"H\": 1}, \"2\": {\"H\": 1}, \"3\": {\"H\": 1}, \"4\": {\"H\": 1}, \"5\": {\"H\": 1}, \"6\": {\"H\": 1}, \"7\": {\"H\": 1}, \"8\": {\"H\": 1}, \"9\": {\"H\": 1}, \"10\": {\"H\": 1}, \"11\": {\"H\": 1}, \"12\": {\"H\": 1}, \"13\": {\"H\": 1}, \"14\": {\"H\": 1}, \"15\": {\"H\": 1}, \"16\": {\"H\": 1}, \"17\": {\"H\": 1}, \"18\": {\"H\": 1}, \"19\": {\"H\": 1}, \"20\": {\"H\": 1}, \"21\": {\"H\": 1}, \"22\": {\"H\": 1}, \"23\": {\"H\": 1}, \"24\": {\"H\": 1}, \"25\": {\"H\": 1}, \"26\": {\"H\": 1}, \"27\": {\"H\": 1}, \"28\": {\"H\": 1}, \"29\": {\"C\": 1}, \"30\": {\"C\": 1}, \"31\": {\"C\": 1}, \"32\": {\"C\": 1}, \"33\": {\"C\": 1}, \"34\": {\"C\": 1}, \"35\": {\"C\": 1}, \"36\": {\"C\": 1}, \"37\": {\"C\": 1}, \"38\": {\"C\": 1}, \"39\": {\"C\": 1}, \"40\": {\"C\": 1}, \"41\": {\"C\": 1}, \"42\": {\"C\": 1}, \"43\": {\"C\": 1}, \"44\": {\"C\": 1}, \"45\": {\"C\": 1}, \"46\": {\"C\": 1}, \"47\": {\"C\": 1}, \"48\": {\"C\": 1}, \"49\": {\"C\": 1}, \"50\": {\"C\": 1}, \"51\": {\"C\": 1}, \"52\": {\"C\": 1}, \"53\": {\"C\": 1}, \"54\": {\"C\": 1}, \"55\": {\"C\": 1}, \"56\": {\"C\": 1}, \"57\": {\"N\": 1}, \"58\": {\"N\": 1}, \"59\": {\"N\": 1}, \"60\": {\"N\": 1}, \"61\": {\"N\": 1}, \"62\": {\"N\": 1}, \"63\": {\"N\": 1}, \"64\": {\"N\": 1}, \"65\": {\"Cl\": 1}, \"66\": {\"Cl\": 1}}" energy=-432.9579772949219 free_energy=-432.9579772949219 stress="-0.0007638802635483444 -4.217857349431142e-05 -1.6927780961850658e-05 -4.217857349431142e-05 -0.0015632950235158205 0.0009920384036377072 -1.6927780961850658e-05 0.0009920384036377072 0.0005241340841166675" pbc="T T T"
Cd       4.96221286       8.33034267      -0.00106409        0      -0.01292527       0.00869657      -0.00038135
H        4.58932160       1.05039263       1.37093478        1       0.02637586       0.00076425      -0.02982822
H        0.15197327       3.82115379       9.20114916        2      -0.03714922       0.00198067       0.02686530
H        0.48129586       0.41566667       3.37422176        3       0.02411102      -0.01297502       0.04437675
H        4.25875876       4.45463871       7.19604569        4      -0.02288911       0.02390437      -0.04626788
H        6.33066624       1.24345160       5.21997764        5       0.00739145      -0.01308152       0.00032422
H       -1.58940699       3.62918736       5.35264619        6      -0.00204154       0.00499288      -0.01016974
H        3.14970076       1.85727596       3.11394474        7      -0.08598821      -0.01664115      -0.03002725
H        1.59307619       3.01419382       7.45888752        8       0.07223983       0.02600064       0.00234605
H        3.97475748       2.75905883       4.41983248        9      -0.03433514      -0.02657244      -0.00086442
H        0.76777027       2.11556801       6.15039254       10       0.03419774       0.01036708       0.00151929
H        2.37101024      -0.48480394       3.51613960       11       0.00697326      -0.05699750       0.01727004
H        2.36986861       5.35940867       7.05487403       12      -0.00953735       0.04902536      -0.02161698
H       -1.36701127       6.26138859       5.19548831       13       0.03377657      -0.03362341       0.00687322
H        6.10675771      -1.38678607       5.37586918       14      -0.03686953       0.01794319      -0.01302293
H        1.91707891      -1.74287773       7.61463524       15      -0.03455457      -0.04250750      -0.01048245
H        2.82510509       6.61691867       2.95680478       16       0.02384802       0.02225941       0.01809022
H        4.10653713       1.84910710       6.69328048       17       0.01545297       0.00002597       0.02343320
H        0.63365096       3.02408941       3.87792326       18      -0.00606593       0.00262378      -0.02408417
H        3.38883293       1.27013952       9.07117303       19      -0.00557719      -0.02123126      -0.04171048
H        1.35541857       3.60403190       1.50053141       20      -0.00412220      -0.00839901       0.03492077
H        2.80895745      -0.39244406       9.41158023       21      -0.09056445      -0.02494230      -0.05663166
H        1.93638290       5.26360094       1.16358861       22       0.09384096       0.06095149       0.01761645
H        4.46887167      -2.27242687       9.60226929       23       0.01425122      -0.00077623      -0.00780336
H        0.27069216       7.14582444       0.96807883       24       0.00141685       0.02171388       0.00140513
H        5.98057351       1.53797565       8.55135978       25       0.04781279      -0.01397708      -0.03575266
H       -1.23912197       3.33456148       2.02078595       26      -0.04870448       0.00550991       0.03546298
H        0.32555484      -0.17221841       9.16193093       27       0.00857486      -0.02762399      -0.00197306
H        4.41460207       5.04719099       1.41024115       28      -0.02886611       0.00824158      -0.00199323
C        5.36069155       0.99524565       2.13592403       29       0.03912574       0.04620757       0.00102897
C       -0.62045479       3.87691218       8.43672685       30      -0.01405764      -0.03358323       0.01861586
C       -0.55398103       0.68255122       3.22667172       31       0.01030073      -0.00544072      -0.02191040
C        5.29486070       4.19151513       7.34362481       32       0.04683417      -0.01311415       0.12164953
C        6.28711076       1.09587443       4.14802493       33       0.02573791      -0.04942338      -0.03461975
C       -1.54532024       3.77501756       6.42454213       34      -0.05283564       0.07820709       0.04977751
C        3.83034138       1.76190081       3.97501525       35      -0.03765714       0.04993835      -0.02404439
C        0.91241475       3.11153656       6.59679716       36       0.01623774      -0.06587273       0.06243747
C        3.28232736       0.80122020       4.99411222       37       0.00190576       0.02665966       0.02189405
C        1.45869981       4.07197525       5.57758869       38       0.01254198      -0.03740621      -0.04850982
C        2.54056246      -0.31788678       4.58271467       39      -0.00316689       0.06515002      -0.02553032
C        2.20077006       5.18999296       5.98842812       40       0.02726038      -0.00203850       0.00970961
C        2.03350132      -1.21390720       5.52180128       41       0.01559901       0.01160529       0.05059152
C        2.70829000       6.08689666       5.04865195       42      -0.02548480      -0.03010222      -0.01118451
C        2.30130776      -1.03177754       6.88098781       43      -0.02543285       0.03210209       0.02753505
C        2.44103318       5.90401311       3.68978503       44       0.03235468       0.00336276      -0.02807964
C        3.07718138       0.05554903       7.31046042       45      -0.03814974       0.00328372       0.01637154
C        1.66388328       4.81763112       3.26104801       46       0.05137058      -0.02897122      -0.02202636
C        3.53610037       0.97804707       6.36022687       47      -0.00672959       0.04097389      -0.02512497
C        1.20670382       3.89387402       4.21040873       48      -0.01814097      -0.02898113       0.06376103
C        3.46001469       0.21531153       8.76109832       49      -0.02925017      -0.01675669       0.08379787
C        1.28229143       4.65784424       1.81036483       50       0.01772994       0.01040293      -0.04608500
C        5.19239384      -1.48968411       9.38991466       51      -0.00124179      -0.06940259       0.01112134
C       -0.45136117       6.36281143       1.17970991       52      -0.07437603      -0.00749032       0.02420932
C        6.00298387       0.49147530       8.82783116       53       0.08899078      -0.06076723       0.05509757
C       -1.26211579       4.38039688       1.74271761       54      -0.05519548       0.10236555      -0.06628124
C       -0.73957107      -0.36286825       9.13570040       55       0.03531805      -0.02553821       0.06361170
C        5.47968702       5.23443840       1.43357131       56       0.02330673       0.01390529      -0.03143155
N        6.62893790       0.61800451       1.97366668       57       0.01516688      -0.07481896      -0.10443071
N       -1.88784484       4.25704635       8.60055515       58      -0.02650185       0.04302894      -0.03725508
N        5.11477513       1.30301231       3.43998854       59       0.03238386       0.06339113      -0.04576683
N       -0.37328198       3.56821498       7.13295729       60      -0.03682801      -0.05803610       0.04795879
N        4.83767312      -0.23340615       9.00323635       61      -0.06844741       0.02879125       0.00572813
N       -0.09520776       5.10620797       1.56803085       62      -0.01512611      -0.00790760      -0.03765318
N        6.51657271      -1.60459352       9.48236583       63       0.05197466      -0.05958497      -0.03263472
N       -1.77736938       6.47598029       1.08884593       64       0.04339407       0.08170263       0.01578248
Cl       2.56326792       3.46755081       9.89806719       65      -0.10040481       0.05438306       0.10673207
Cl       2.18373398       1.39886192       0.67943007       66       0.09141912      -0.04587758      -0.11273600
67