60
Lattice="7.76452135 0.0 0.0 3.8830860736548947 10.1280014811832 0.0 2.5988119551161883 -0.006324050549830988 11.88306632345736" Properties=species:S:1:pos:R:3:spacegroup_kinds:I:1:forces:R:3 spacegroup="P 1" unit_cell=conventional occupancy="_JSON {\"0\": {\"Zn\": 1}, \"1\": {\"Si\": 1}, \"2\": {\"H\": 1}, \"3\": {\"H\": 1}, \"4\": {\"H\": 1}, \"5\": {\"H\": 1}, \"6\": {\"H\": 1}, \"7\": {\"H\": 1}, \"8\": {\"H\": 1}, \"9\": {\"H\": 1}, \"10\": {\"H\": 1}, \"11\": {\"H\": 1}, \"12\": {\"H\": 1}, \"13\": {\"H\": 1}, \"14\": {\"H\": 1}, \"15\": {\"H\": 1}, \"16\": {\"H\": 1}, \"17\": {\"H\": 1}, \"18\": {\"H\": 1}, \"19\": {\"H\": 1}, \"20\": {\"H\": 1}, \"21\": {\"H\": 1}, \"22\": {\"C\": 1}, \"23\": {\"C\": 1}, \"24\": {\"C\": 1}, \"25\": {\"C\": 1}, \"26\": {\"C\": 1}, \"27\": {\"C\": 1}, \"28\": {\"C\": 1}, \"29\": {\"C\": 1}, \"30\": {\"C\": 1}, \"31\": {\"C\": 1}, \"32\": {\"C\": 1}, \"33\": {\"C\": 1}, \"34\": {\"C\": 1}, \"35\": {\"C\": 1}, \"36\": {\"C\": 1}, \"37\": {\"C\": 1}, \"38\": {\"C\": 1}, \"39\": {\"C\": 1}, \"40\": {\"C\": 1}, \"41\": {\"C\": 1}, \"42\": {\"C\": 1}, \"43\": {\"C\": 1}, \"44\": {\"C\": 1}, \"45\": {\"C\": 1}, \"46\": {\"N\": 1}, \"47\": {\"N\": 1}, \"48\": {\"N\": 1}, \"49\": {\"N\": 1}, \"50\": {\"N\": 1}, \"51\": {\"N\": 1}, \"52\": {\"N\": 1}, \"53\": {\"N\": 1}, \"54\": {\"F\": 1}, \"55\": {\"F\": 1}, \"56\": {\"F\": 1}, \"57\": {\"F\": 1}, \"58\": {\"F\": 1}, \"59\": {\"F\": 1}}" energy=-397.00921630859375 free_energy=-397.00921630859375 stress="-0.0011035108473151922 0.00017010381270665675 0.002267239848151803 0.00017010381270665675 0.0027753799222409725 -2.720398515521083e-05 0.002267239848151803 -2.720398515521083e-05 0.000527618860360235" pbc="T T T"
Zn       9.06488706      10.12469026       5.94168414        0       0.06682532      -0.23386718       0.21637863
Si       5.18309191      10.12406909       5.94228346        1       0.56805456      -1.04323673       0.94961298
H        7.18751702       1.10168241       3.85686948        2      -0.04352199       0.00767242       0.01092711
H        3.23545876       1.10056456       8.08774340        3      -0.03748638      -0.02063340      -0.03117233
H        7.11821470       8.96050922       8.08596400        4      -0.03649059       0.02403089      -0.04812196
H       11.06976814       8.96160229       3.85518542        5      -0.00975545       0.00023707       0.02339777
H        7.15385379       2.75471804       1.98363860        6       0.11486442       0.02952962      -0.05536733
H       11.03382850       2.75323299       9.96116481        7      -0.03694536       0.02137606       0.00740838
H        7.14831410       7.30712356       9.95919305        8      -0.03706650      -0.01895389       0.00212170
H        3.27155648       7.30862024       1.98163243        9       0.04637611      -0.02334020      -0.01358314
H        3.15369650       3.88477912       3.21672699       10       0.51094210      -0.38989204       0.11031571
H        7.24100022       3.88525064       8.68822937       11       0.15704632       0.04917369       0.05004594
H       11.12235513       6.20728506       8.69604865       12       0.63143975      -0.45327002       0.12799197
H        7.03729462       6.20445982       3.22698563       13       0.15639600       0.04791813       0.03081101
H        4.17578047       5.09357261       1.35069281       14       0.07889927      -0.04243691      -0.03575418
H        6.24835439       5.09390658      10.59239347       15      -0.11255308      -0.06776802       0.03165608
H       10.12926771       4.96850257      10.59229614       16      -0.06948287       0.03606483       0.03400159
H        8.05646121       4.96907884       1.35040233       17       0.07765668       0.04209863      -0.03402404
H        3.29141956       2.07373172       4.96109384       18       0.03682801       0.02149466      -0.02774315
H        7.12483392       2.07859466       6.97038053       19      -0.03847665       0.01786347       0.03280618
H       11.01420840       7.98818795       6.98180183       20       0.01196226      -0.01180770      -0.00371822
H        7.17540151       7.98928846       4.96678471       21       0.02195890      -0.01949299      -0.01742069
C        6.30126347       1.70933569       3.66136784       22       0.04169434       0.00262427       0.00335104
C        4.12045797       1.70881264       8.28083273       23      -0.11509439       0.01844403       0.03824823
C        8.00272056       8.35280325       8.28158752       24       0.05478492       0.00745824      -0.05920998
C       10.18465061       8.35321287       3.66199488       25      -0.00681180       0.00024551       0.02725172
C        6.29437460       2.64770309       2.63948893       26      -0.06520960      -0.04173266       0.05197346
C        4.13028899       2.64734210       9.30265822       27      -0.01139992      -0.03425629       0.04613630
C        8.01078179       7.41486984       9.30269295       28      -0.03555864       0.00348430       0.05815297
C       10.17524660       7.41567871       2.63953901       29       0.01611269       0.02281722       0.01573183
C        4.06936244       3.26419460       3.32593679       30      -0.60865140       0.29319346       0.01755746
C        6.35261902       3.26577711       8.61033730       31      -0.02595737      -0.13570893      -0.20250450
C       10.23587564       6.79796991       8.61707415       32      -0.49679404       0.54418498      -0.28866082
C        7.95315228       6.79623680       3.33245106       33      -0.28804207       0.06306627       0.09055012
C        5.06133752       4.44326030       1.39428080       34      -0.46223110      -0.24249010       0.64401507
C        5.36276610       4.44135565      10.54719679       35       0.51400673      -0.20763102      -0.66920400
C        9.24426657       5.61894389      10.54864067       36       0.45496026       0.25700718      -0.66332585
C        8.94090342       5.62046623       1.39556097       37      -0.41434339       0.26848930       0.62601161
C        5.15343789       3.45018246       2.45544094       38       0.08429146       0.22530571      -0.27526680
C        5.27051719       3.44982819       9.48438344       39      -0.08763233       0.22237018       0.27988666
C        9.15090167       6.61266551       9.48749690       40      -0.01600899      -0.24829853       0.25485280
C        9.03443265       6.61325178       2.45784221       41       0.05887458      -0.27787638      -0.27873492
C        4.13786268       2.27566429       4.30164422       42      -0.10336363       0.10484864      -0.05833125
C        6.28165522       2.27742367       7.63448342       43      -0.10665339       0.00251943       0.04521468
C       10.16706546       7.78693040       7.63907473       44      -0.07822782      -0.02945352       0.12134787
C        8.02268804       7.78520174       4.30833420       45      -0.00944319      -0.03144683      -0.05492035
N        5.23373363       1.51127193       4.46595599       46       0.05650483       0.04117140      -0.09653383
N        5.18023206       1.51201717       7.47345544       47       0.23431993       0.00750801      -0.07558292
N        9.07041558       8.55149688       7.47693028       48      -0.05351467       0.12912777      -0.08708155
N        9.11927912       8.55118424       4.46953568       49       0.01348777       0.03614539      -0.01128304
N        5.98919776       4.53644664       0.49476984       50      -0.20205000       0.88279146      -0.77255166
N        4.43555622       4.53129265      11.44671582       51       0.17418213       0.87952280       0.79820722
N        8.31693243       5.52543695      11.44798016       52       0.19004740      -0.88764858       0.79107106
N        9.86994817       5.53066030       0.49584012       53      -0.22848991      -0.88284576      -0.75303203
F        6.97133664      10.09435540       5.92080063       54      -0.14302740       0.06112083      -0.08622941
F        7.33432097      -0.03189164       6.02198797       55      -0.26680398       0.07532725      -0.08600957
F        5.20917215       8.38973986       5.97531082       56      -0.03887646       0.40398905      -0.11775517
F        9.09484065       1.67205956       5.96773149       57      -0.04710880       0.39029819      -0.10655289
F        9.14620405      -0.02314264       7.66783410       58      -0.04378537       0.05345070      -0.25239176
F        5.14697231      10.09811958       4.26249710       59       0.00434103       0.05011663      -0.27496743
60
Lattice="7.76452135 0.0 0.0 3.8830860736548947 10.1280014811832 0.0 2.5988119551161883 -0.006324050549830988 11.88306632345736" Properties=species:S:1:pos:R:3:spacegroup_kinds:I:1:forces:R:3 spacegroup="P 1" unit_cell=conventional occupancy="_JSON {\"0\": {\"Zn\": 1}, \"1\": {\"Si\": 1}, \"2\": {\"H\": 1}, \"3\": {\"H\": 1}, \"4\": {\"H\": 1}, \"5\": {\"H\": 1}, \"6\": {\"H\": 1}, \"7\": {\"H\": 1}, \"8\": {\"H\": 1}, \"9\": {\"H\": 1}, \"10\": {\"H\": 1}, \"11\": {\"H\": 1}, \"12\": {\"H\": 1}, \"13\": {\"H\": 1}, \"14\": {\"H\": 1}, \"15\": {\"H\": 1}, \"16\": {\"H\": 1}, \"17\": {\"H\": 1}, \"18\": {\"H\": 1}, \"19\": {\"H\": 1}, \"20\": {\"H\": 1}, \"21\": {\"H\": 1}, \"22\": {\"C\": 1}, \"23\": {\"C\": 1}, \"24\": {\"C\": 1}, \"25\": {\"C\": 1}, \"26\": {\"C\": 1}, \"27\": {\"C\": 1}, \"28\": {\"C\": 1}, \"29\": {\"C\": 1}, \"30\": {\"C\": 1}, \"31\": {\"C\": 1}, \"32\": {\"C\": 1}, \"33\": {\"C\": 1}, \"34\": {\"C\": 1}, \"35\": {\"C\": 1}, \"36\": {\"C\": 1}, \"37\": {\"C\": 1}, \"38\": {\"C\": 1}, \"39\": {\"C\": 1}, \"40\": {\"C\": 1}, \"41\": {\"C\": 1}, \"42\": {\"C\": 1}, \"43\": {\"C\": 1}, \"44\": {\"C\": 1}, \"45\": {\"C\": 1}, \"46\": {\"N\": 1}, \"47\": {\"N\": 1}, \"48\": {\"N\": 1}, \"49\": {\"N\": 1}, \"50\": {\"N\": 1}, \"51\": {\"N\": 1}, \"52\": {\"N\": 1}, \"53\": {\"N\": 1}, \"54\": {\"F\": 1}, \"55\": {\"F\": 1}, \"56\": {\"F\": 1}, \"57\": {\"F\": 1}, \"58\": {\"F\": 1}, \"59\": {\"F\": 1}}" energy=-397.003173828125 free_energy=-397.003173828125 stress="-0.0016854195855557919 0.0003963838971685618 0.0023402192164212465 0.0003963838971685618 0.0027198265306651592 0.00014074165665078908 0.0023402192164212465 0.00014074165665078908 0.0006184384110383689" pbc="T T T"
Zn       9.09419448      10.09483401       5.97145837        0       0.03859943      -0.23024923       0.21832564
Si       5.20899518      10.09474826       5.97226872        1       0.66394454      -1.05592251       0.94426632
H        7.21047807       1.07193851       3.88651154        2       0.06916298      -0.05186413       0.02492351
H        3.26505351       1.07113925       8.11711584        3      -0.05988687      -0.03372270      -0.03784479
H        7.14652932       8.93099302       8.11563478        4      -0.02222920       0.01488468      -0.04599716
H       11.09434492       8.93687803       3.87984863        5       0.12881617       0.11769634       0.06291041
H        7.18257342       2.72492949       2.01356851        6       0.09952927       0.02683292      -0.04485536
H       11.06301662       2.72349595       9.99109547        7      -0.02470700       0.01922628      -0.00105536
H        7.17643372       7.27810477       9.98905464        8      -0.00919050      -0.01882141      -0.02555291
H        3.29629789       7.27869586       2.01152923        9       0.17007145      -0.02555770      -0.09717269
H        3.18339570       3.85549114       3.24653845       10       0.51737392      -0.39803582       0.11371394
H        7.27022599       3.85606114       8.71779025       11       0.16971260       0.05722341       0.05146493
H       11.15067371       6.17752136       8.72598873       12       0.57418615      -0.40374970       0.11999547
H        7.06718281       6.17469663       3.25667826       13       0.13610679       0.03909560       0.03089108
H        4.20520065       5.06433667       1.38014710       14       0.09090559      -0.05075032      -0.03793760
H        6.27801351       5.06392091      10.62201960       15      -0.10200606      -0.05307718       0.04091155
H       10.15831256       4.94523215      10.62214837       16       0.02163641      -0.04740430       0.04487222
H        8.08452651       4.93969426       1.37992696       17       0.09477894       0.05081949      -0.03232998
H        3.32136266       2.04403892       4.99105196       18       0.03950308       0.02532604      -0.03599241
H        7.15452291       2.04879123       6.99960096       19      -0.05997141       0.02040324       0.04957959
H       11.02996719       7.97116595       6.99899668       20       0.10091539      -0.10350447       0.05764012
H        7.20363410       7.95973026       4.99664068       21       0.05717638      -0.02590119      -0.03786406
C        6.32899626       1.67959981       3.69125110       22      -0.01599821       0.07559571      -0.04064851
C        4.14951741       1.67901502       8.30940033       23      -0.12014553       0.05825689       0.10014544
C        8.03151760       8.32292369       8.31115164       24       0.04730809       0.05981511      -0.10278102
C       10.21253068       8.33284837       3.68980132       25      -0.13984460      -0.33416349      -0.14428547
C        6.32234688       2.61822842       2.66944567       26      -0.02483782      -0.05629114       0.03361568
C        4.16006085       2.61763765       9.33255905       27      -0.05706089      -0.06190547       0.02796678
C        8.03937522       7.38530065       9.33105813       28      -0.05269006      -0.04327225       0.13488697
C       10.20486119       7.38719346       2.66829506       29      -0.14337419       0.14009479       0.18672900
C        4.09918440       3.23438963       3.35585576       30      -0.65396345       0.32075980       0.00045124
C        6.38247179       3.23653358       8.64012613       31      -0.07544145      -0.16943887      -0.20949474
C       10.26423387       6.77226922       8.64688601       32      -0.34116021       0.37155101      -0.23518503
C        7.98212835       6.76661185       3.36222354       33      -0.26182181       0.08016947       0.07889029
C        5.09094771       4.41336812       1.42324758       34      -0.51050830      -0.23757184       0.68082702
C        5.39244761       4.41268205      10.57711728       35       0.39940351      -0.26092535      -0.64023042
C        9.27372780       5.58952573      10.57859066       36       0.37435722       0.34959346      -0.67813599
C        8.97010562       5.59055464       1.42549919       37      -0.43037266       0.26422250       0.63055795
C        5.18188971       3.42029283       2.48477653       38       0.10662581       0.23399442      -0.28307527
C        5.29891565       3.42024751       9.51404266       39      -0.02149862       0.25792068       0.28768700
C        9.18025871       6.58338482       9.51731623       40      -0.06952752      -0.19961616       0.24656412
C        9.06360709       6.58343406       2.48743447       41       0.10436657      -0.23877250      -0.25020048
C        4.16746900       2.24585866       4.33066519       42      -0.15259916       0.12003298      -0.02074948
C        6.31086687       2.24750118       7.66441752       43      -0.09280157       0.01522457       0.04273394
C       10.19677145       7.75718067       7.66896189       44      -0.18174824       0.14484563      -0.00645015
C        8.05180063       7.75598780       4.33707525       45      -0.02917367      -0.03284232      -0.01339877
N        5.26273932       1.48288844       4.49571820       46       0.05027691      -0.00627646      -0.06705111
N        5.20850381       1.48228334       7.50327799       47       0.28922051       0.01112458      -0.10482028
N        9.09968613       8.52235727       7.50672935       48      -0.11386697       0.11218375      -0.04778844
N        9.14884057       8.52188640       4.49932464       49      -0.01891094       0.10172701      -0.00623956
N        6.01851619       4.50654976       0.52466054       50      -0.17578711       0.88639629      -0.80013645
N        4.46225231       4.50176911      11.47664357       51       0.28319827       0.88914120       0.72422934
N        8.34607403       5.49565441      11.47784805       52       0.19648477      -0.88858962       0.77502239
N        9.89866866       5.50079548       0.52522893       53      -0.24608736      -0.88542008      -0.74045718
F        7.00048798      10.06445886       5.95034122       54      -0.15376547       0.06415282      -0.08864245
F        7.36364449      -0.06017973       6.05189959       55      -0.30192149       0.06841659      -0.07912044
F        5.23894573       8.36005145       6.00507598       56      -0.05425873       0.41525531      -0.11706039
F        9.12431074       1.64220255       5.99765438       57      -0.05415153       0.40107617      -0.10570958
F        9.17604172      -0.05232501       7.69781627       58      -0.05694827       0.05122107      -0.25549170
F        5.17370393      10.06870448       4.29248837       59       0.00459629       0.04936656      -0.27604699
60
Lattice="7.76452135 0.0 0.0 3.8830860736548947 10.1280014811832 0.0 2.5988119551161883 -0.006324050549830988 11.88306632345736" Properties=species:S:1:pos:R:3:spacegroup_kinds:I:1:forces:R:3 spacegroup="P 1" unit_cell=conventional occupancy="_JSON {\"0\": {\"Zn\": 1}, \"1\": {\"Si\": 1}, \"2\": {\"H\": 1}, \"3\": {\"H\": 1}, \"4\": {\"H\": 1}, \"5\": {\"H\": 1}, \"6\": {\"H\": 1}, \"7\": {\"H\": 1}, \"8\": {\"H\": 1}, \"9\": {\"H\": 1}, \"10\": {\"H\": 1}, \"11\": {\"H\": 1}, \"12\": {\"H\": 1}, \"13\": {\"H\": 1}, \"14\": {\"H\": 1}, \"15\": {\"H\": 1}, \"16\": {\"H\": 1}, \"17\": {\"H\": 1}, \"18\": {\"H\": 1}, \"19\": {\"H\": 1}, \"20\": {\"H\": 1}, \"21\": {\"H\": 1}, \"22\": {\"C\": 1}, \"23\": {\"C\": 1}, \"24\": {\"C\": 1}, \"25\": {\"C\": 1}, \"26\": {\"C\": 1}, \"27\": {\"C\": 1}, \"28\": {\"C\": 1}, \"29\": {\"C\": 1}, \"30\": {\"C\": 1}, \"31\": {\"C\": 1}, \"32\": {\"C\": 1}, \"33\": {\"C\": 1}, \"34\": {\"C\": 1}, \"35\": {\"C\": 1}, \"36\": {\"C\": 1}, \"37\": {\"C\": 1}, \"38\": {\"C\": 1}, \"39\": {\"C\": 1}, \"40\": {\"C\": 1}, \"41\": {\"C\": 1}, \"42\": {\"C\": 1}, \"43\": {\"C\": 1}, \"44\": {\"C\": 1}, \"45\": {\"C\": 1}, \"46\": {\"N\": 1}, \"47\": {\"N\": 1}, \"48\": {\"N\": 1}, \"49\": {\"N\": 1}, \"50\": {\"N\": 1}, \"51\": {\"N\": 1}, \"52\": {\"N\": 1}, \"53\": {\"N\": 1}, \"54\": {\"F\": 1}, \"55\": {\"F\": 1}, \"56\": {\"F\": 1}, \"57\": {\"F\": 1}, \"58\": {\"F\": 1}, \"59\": {\"F\": 1}}" energy=-396.99761962890625 free_energy=-396.99761962890625 stress="-0.0021625442896038294 0.0006775957299396396 0.003042432013899088 0.0006775957299396396 0.0027327833231538534 5.967414836050011e-05 0.003042432013899088 5.967414836050011e-05 2.2245891159400344e-05" pbc="T T T"
Zn       9.12398506      10.06519940       6.00136848        0       0.03226120      -0.23502398       0.21111922
Si       5.23856273      10.06524756       6.00209918        1       0.64661944      -1.05553555       0.93048060
H        7.23983642       1.04311890       3.91638746        2      -0.09809542       0.03700185      -0.00502100
H        3.29472580       1.04125042       8.14683523        3      -0.06367765      -0.03945959      -0.04263259
H        7.17451232       8.90134874       8.14481611        4      -0.00162409       0.00386796      -0.04408347
H       11.12272053       8.90757658       3.90970440        5       0.03762360       0.06312747       0.04872940
H        7.20822945       2.69538146       2.04332372        6       0.19651227       0.01823250      -0.08979397
H       11.09298867       2.69359472      10.02088865        7      -0.03272900       0.01006167      -0.02302372
H        7.20583862       7.25547139      10.01901839        8      -0.01496035      -0.03926465      -0.01714431
H        3.32513792       7.24986112       2.04148308        9       0.19275150      -0.04146239      -0.12686959
H        3.21321921       3.82827818       3.27637919       10       0.54982364      -0.43105423       0.12187442
H        7.29914534       3.82622755       8.74773716       11       0.13436478       0.03285886       0.04567985
H       11.17987524       6.14818475       8.75587930       12       0.53903031      -0.38159320       0.11555723
H        7.09655338       6.14547963       3.28629765       13       0.08016355       0.00231654       0.03080340
H        4.23478671       5.03556700       1.40848524       14       0.07669509      -0.04037356      -0.03001271
H        6.30710494       5.03536092      10.64999690       15      -0.10623594      -0.05627891       0.04360079
H       10.18774475       4.91904273      10.64918909       16       0.07225409      -0.09952749       0.06009503
H        8.11402709       4.91086184       1.40871014       17       0.04354563      -0.00013895      -0.03624843
H        3.34905777       2.01507030       5.02092086       18       0.11876488       0.04560602      -0.10643334
H        7.18412297       2.01926989       7.02938538       19      -0.05560777       0.01669149       0.04587141
H       11.05929194       7.94175026       7.02832893       20       0.05051162      -0.11245237       0.09313214
H        7.23257814       7.93050339       5.02638448       21      -0.06151841       0.00165940       0.04022542
C        6.35002375       1.64991369       3.72087998       22       0.50612569      -0.05153641      -0.11316007
C        4.17864194       1.64977359       8.33853396       23      -0.15641859       0.00118059       0.03291647
C        8.06092288       8.29348859       8.33894272       24      -0.03786328       0.05495718      -0.03036436
C       10.23688287       8.30314681       3.71923317       25       0.16404745      -0.32107657      -0.28883633
C        6.35211341       2.58854960       2.69918975       26      -0.22127235      -0.01446781       0.06197636
C        4.18712695       2.58770353       9.35800150       27       0.00172533       0.07657839       0.19801034
C        8.06873509       7.35608244       9.36052357       28      -0.08203009       0.01099008       0.10311721
C       10.23404668       7.35778571       2.69634121       29      -0.45618227       0.03816060       0.23182258
C        4.12915135       3.20450540       3.38569729       30      -0.70409513       0.39973229      -0.06354807
C        6.40977446       3.20675551       8.66866556       31      -0.01048686      -0.10308376      -0.15801927
C       10.29201676       6.74281265       8.67686835       32      -0.31328130       0.37408727      -0.26375422
C        8.00969316       6.73698295       3.39208373       33      -0.45899826       0.10515217       0.17098907
C        5.12035280       4.38530843       1.45264204       34      -0.53204030      -0.27596444       0.72888184
C        5.42168788       4.38355044      10.60668926       35       0.40925217      -0.25561532      -0.65113926
C        9.30322524       5.55963139      10.60845289       36       0.32331795       0.41703707      -0.70875210
C        8.99779274       5.56058772       1.45535778       37      -0.49805406       0.27289546       0.64491242
C        5.21151745       3.39080142       2.51452645       38       0.13889362       0.26453137      -0.32403374
C        5.32711427       3.39156759       9.54383033       39      -0.05747315       0.19504155       0.21610895
C        9.20807139       6.55417141       9.54723980       40      -0.04221462      -0.22628067       0.26194015
C        9.08316871       6.55398842       2.51684065       41       0.62309229      -0.11355424      -0.36299473
C        4.19714008       2.21631934       4.35732899       42      -0.30823505       0.07408307       0.15836087
C        6.34034950       2.21767146       7.69378960       43      -0.13155153       0.01161482       0.03631732
C       10.22368479       7.72788365       7.69847301       44      -0.08477336       0.13003784      -0.02865025
C        8.07393668       7.72667077       4.36600297       45       0.33181483       0.03570186      -0.09756485
N        5.29241792       1.45380835       4.52530223       46      -0.14818805      -0.03057799       0.01517192
N        5.23720519       1.45372051       7.53287649       47       0.33110183      -0.02312478      -0.14722538
N        9.12750750       8.49381869       7.53632710       48      -0.07353313       0.11187178      -0.10106698
N        9.17795340       8.49202421       4.52458439       49      -0.37994629       0.08132458       0.17032012
N        6.04655034       4.47753371       0.55386161       50      -0.12774403       0.86821258      -0.80805111
N        4.49215506       4.47217175      11.50655296       51       0.24104384       0.88055861       0.74615502
N        8.37598634       5.46591300      11.50768936       52       0.17953923      -0.87574816       0.76739132
N        9.92512298       5.47115449       0.55509795       53      -0.17233515      -0.85810435      -0.75496668
F        7.02656782      10.03782134       5.97986234       54      -0.09836634       0.04917688      -0.09171962
F        7.39254880      -0.08942892       6.08134691       55      -0.29822579       0.06547853      -0.07489346
F        5.26865829       8.33030152       6.03497187       56      -0.05765864       0.41507089      -0.11605977
F        9.15371601       1.61229101       6.02711707       57      -0.06688517       0.41930306      -0.10363463
F        9.20589796      -0.08198036       7.72716682       58      -0.06662127       0.04970383      -0.24141684
F        5.20307747      10.03888714       4.32223797       59      -0.00195261       0.04739355      -0.28044599
60
Lattice="7.76452135 0.0 0.0 3.8830860736548947 10.1280014811832 0.0 2.5988119551161883 -0.006324050549830988 11.88306632345736" Properties=species:S:1:pos:R:3:spacegroup_kinds:I:1:forces:R:3 spacegroup="P 1" unit_cell=conventional occupancy="_JSON {\"0\": {\"Zn\": 1}, \"1\": {\"Si\": 1}, \"2\": {\"H\": 1}, \"3\": {\"H\": 1}, \"4\": {\"H\": 1}, \"5\": {\"H\": 1}, \"6\": {\"H\": 1}, \"7\": {\"H\": 1}, \"8\": {\"H\": 1}, \"9\": {\"H\": 1}, \"10\": {\"H\": 1}, \"11\": {\"H\": 1}, \"12\": {\"H\": 1}, \"13\": {\"H\": 1}, \"14\": {\"H\": 1}, \"15\": {\"H\": 1}, \"16\": {\"H\": 1}, \"17\": {\"H\": 1}, \"18\": {\"H\": 1}, \"19\": {\"H\": 1}, \"20\": {\"H\": 1}, \"21\": {\"H\": 1}, \"22\": {\"C\": 1}, \"23\": {\"C\": 1}, \"24\": {\"C\": 1}, \"25\": {\"C\": 1}, \"26\": {\"C\": 1}, \"27\": {\"C\": 1}, \"28\": {\"C\": 1}, \"29\": {\"C\": 1}, \"30\": {\"C\": 1}, \"31\": {\"C\": 1}, \"32\": {\"C\": 1}, \"33\": {\"C\": 1}, \"34\": {\"C\": 1}, \"35\": {\"C\": 1}, \"36\": {\"C\": 1}, \"37\": {\"C\": 1}, \"38\": {\"C\": 1}, \"39\": {\"C\": 1}, \"40\": {\"C\": 1}, \"41\": {\"C\": 1}, \"42\": {\"C\": 1}, \"43\": {\"C\": 1}, \"44\": {\"C\": 1}, \"45\": {\"C\": 1}, \"46\": {\"N\": 1}, \"47\": {\"N\": 1}, \"48\": {\"N\": 1}, \"49\": {\"N\": 1}, \"50\": {\"N\": 1}, \"51\": {\"N\": 1}, \"52\": {\"N\": 1}, \"53\": {\"N\": 1}, \"54\": {\"F\": 1}, \"55\": {\"F\": 1}, \"56\": {\"F\": 1}, \"57\": {\"F\": 1}, \"58\": {\"F\": 1}, \"59\": {\"F\": 1}}" energy=-396.9937744140625 free_energy=-396.9937744140625 stress="-0.001803707447834313 0.0005915015935897827 0.0029627608601003885 0.0005915015935897827 0.002697570947930217 0.0003319193492643535 0.0029627608601003885 0.0003319193492643535 -2.000374843191821e-05" pbc="T T T"
Zn       9.15388677      10.03688864       6.03066784        0       0.02402013      -0.23792891       0.21733093
Si       5.26724429      10.03658790       6.03194650        1       0.66688699      -1.07820177       0.91986096
H        7.26779684       1.01363685       3.94575126        2      -0.12099823       0.07944410      -0.01660509
H        3.32342065       1.01183690       8.17642307        3      -0.12674588      -0.07750300      -0.05412159
H        7.19047651       8.87200173       8.17354169        4       0.25802994      -0.13162553      -0.01057538
H       11.15094324       8.88030480       3.93885971        5       0.02302752       0.04000846       0.04376042
H        7.22845035       2.66600782       2.07309048        6       0.35263944       0.02650769      -0.19108768
H       11.12273312       2.66370757      10.05040137        7      -0.03825781       0.01585841      -0.01259528
H        7.23581907       7.22570372      10.04886878        8      -0.06221481      -0.04533750       0.00645308
H        3.35195309       7.22004021       2.07006286        9       0.24085295      -0.03979186      -0.15076196
H        3.24264730       3.79840164       3.30623510       10       0.47448203      -0.39181009       0.11767578
H        7.32854590       3.79651061       8.77749815       11       0.05003478      -0.01216331       0.04016962
H       11.20912732       6.11832091       8.78510520       12       0.38615528      -0.25198838       0.09551246
H        7.12381294       6.11657734       3.31538791       13       0.12129895       0.02797110       0.03501496
H        4.26448163       5.00579762       1.43807507       14       0.07564899      -0.03670333      -0.02799678
H        6.33644966       5.01583148      10.67954422       15      -0.23021214      -0.18781783       0.01017270
H       10.21396965       4.88954063      10.67896425       16       0.14690006      -0.14679617       0.05918420
H        8.14230841       4.88112459       1.43807154       17       0.07019322       0.01715979      -0.02586938
H        3.37867059       1.98573888       5.05070108       18       0.11628396       0.04072345      -0.10079629
H        7.21341888       1.98956110       7.05927675       19      -0.03732008       0.01569226       0.03962233
H       11.08808726       7.91194397       7.05827084       20       0.07438739      -0.11065426       0.07171553
H        7.24933798       7.90715694       5.05617281       21       0.21035156      -0.04772043      -0.13713264