106
Lattice="9.91338796 0.0 0.0 -0.9497162034572538 10.315372498067676 0.0 -1.7501761992704608 -0.6189087241773107 11.701663952731014" Properties=species:S:1:pos:R:3:spacegroup_kinds:I:1:forces:R:3 spacegroup="P 1" unit_cell=conventional occupancy="_JSON {\"0\": {\"Zn\": 1}, \"1\": {\"Zn\": 1}, \"2\": {\"H\": 1}, \"3\": {\"H\": 1}, \"4\": {\"H\": 1}, \"5\": {\"H\": 1}, \"6\": {\"H\": 1}, \"7\": {\"H\": 1}, \"8\": {\"H\": 1}, \"9\": {\"H\": 1}, \"10\": {\"H\": 1}, \"11\": {\"H\": 1}, \"12\": {\"H\": 1}, \"13\": {\"H\": 1}, \"14\": {\"H\": 1}, \"15\": {\"H\": 1}, \"16\": {\"H\": 1}, \"17\": {\"H\": 1}, \"18\": {\"H\": 1}, \"19\": {\"H\": 1}, \"20\": {\"H\": 1}, \"21\": {\"H\": 1}, \"22\": {\"H\": 1}, \"23\": {\"H\": 1}, \"24\": {\"H\": 1}, \"25\": {\"H\": 1}, \"26\": {\"H\": 1}, \"27\": {\"H\": 1}, \"28\": {\"H\": 1}, \"29\": {\"H\": 1}, \"30\": {\"H\": 1}, \"31\": {\"H\": 1}, \"32\": {\"H\": 1}, \"33\": {\"H\": 1}, \"34\": {\"H\": 1}, \"35\": {\"H\": 1}, \"36\": {\"H\": 1}, \"37\": {\"H\": 1}, \"38\": {\"H\": 1}, \"39\": {\"H\": 1}, \"40\": {\"H\": 1}, \"41\": {\"H\": 1}, \"42\": {\"C\": 1}, \"43\": {\"C\": 1}, \"44\": {\"C\": 1}, \"45\": {\"C\": 1}, \"46\": {\"C\": 1}, \"47\": {\"C\": 1}, \"48\": {\"C\": 1}, \"49\": {\"C\": 1}, \"50\": {\"C\": 1}, \"51\": {\"C\": 1}, \"52\": {\"C\": 1}, \"53\": {\"C\": 1}, \"54\": {\"C\": 1}, \"55\": {\"C\": 1}, \"56\": {\"C\": 1}, \"57\": {\"C\": 1}, \"58\": {\"C\": 1}, \"59\": {\"C\": 1}, \"60\": {\"C\": 1}, \"61\": {\"C\": 1}, \"62\": {\"C\": 1}, \"63\": {\"C\": 1}, \"64\": {\"C\": 1}, \"65\": {\"C\": 1}, \"66\": {\"C\": 1}, \"67\": {\"C\": 1}, \"68\": {\"C\": 1}, \"69\": {\"C\": 1}, \"70\": {\"C\": 1}, \"71\": {\"C\": 1}, \"72\": {\"C\": 1}, \"73\": {\"C\": 1}, \"74\": {\"C\": 1}, \"75\": {\"C\": 1}, \"76\": {\"C\": 1}, \"77\": {\"C\": 1}, \"78\": {\"C\": 1}, \"79\": {\"C\": 1}, \"80\": {\"C\": 1}, \"81\": {\"C\": 1}, \"82\": {\"C\": 1}, \"83\": {\"C\": 1}, \"84\": {\"C\": 1}, \"85\": {\"C\": 1}, \"86\": {\"C\": 1}, \"87\": {\"C\": 1}, \"88\": {\"C\": 1}, \"89\": {\"C\": 1}, \"90\": {\"C\": 1}, \"91\": {\"C\": 1}, \"92\": {\"C\": 1}, \"93\": {\"C\": 1}, \"94\": {\"N\": 1}, \"95\": {\"N\": 1}, \"96\": {\"N\": 1}, \"97\": {\"N\": 1}, \"98\": {\"O\": 1}, \"99\": {\"O\": 1}, \"100\": {\"O\": 1}, \"101\": {\"O\": 1}, \"102\": {\"O\": 1}, \"103\": {\"O\": 1}, \"104\": {\"O\": 1}, \"105\": {\"O\": 1}}" energy=-716.2998046875 free_energy=-716.2998046875 stress="0.0017872289754450321 -0.0004878584004472941 -8.727422391530126e-05 -0.0004878584004472941 0.0017328839749097824 4.7646208258811384e-05 -8.727422391530126e-05 4.7646208258811384e-05 0.0020386860705912113" pbc="T T T"
Zn       4.49971234       9.21809340       6.88424751        0       0.00381948       0.03810056      -0.04448712
Zn       2.71213686       0.48024531       4.81436408        1      -0.01189522      -0.05182406       0.05679326
H        7.06856884       5.19997579       9.70476158        2       0.01192436      -0.02263376       0.01187101
H        0.14194204       4.49788486       1.99424231        3      -0.00330109       0.04094467       0.00047410
H       -1.07797833       4.96772181      11.48108519        4      -0.00828284       0.04773066      -0.02186137
H        8.28950138       4.72943646       0.21689991        5       0.00740503      -0.03850311       0.02451577
H        1.71936889       7.62072915       0.74268249        6      -0.00275052       0.00312138       0.02060892
H        5.49176335       2.07745713      10.95645414        7       0.00071939       0.00122725      -0.02593095
H       -0.73808523       9.26520485      11.65215189        8       0.01061843      -0.01762851       0.02939588
H        7.94804435       0.43376303       0.04655070        9      -0.01804116      -0.01241605      -0.03523989
H        7.41539671       9.46351106       9.89418363       10       0.02809713      -0.00355314       0.00275018
H       -0.20494018       0.23534616       1.80472719       11      -0.00477468      -0.04870056       0.02462969
H        4.12921594       0.40259036      10.12106143       12       0.05628243       0.00174185       0.01112167
H        3.08081705       9.29654889       1.57803902       13      -0.03099015      -0.02142841      -0.01408709
H        4.97868644       1.55025866       0.68198862       14      -0.05170824       0.02228238       0.00939795
H        2.23132567       8.14758132      11.01797575       15       0.03648172      -0.01783053      -0.04288528
H        2.64461090       2.38161745       0.92608525       16       0.04125503      -0.01023168      -0.00352144
H        4.56523000       7.31511931      10.77354075       17      -0.03017323       0.01160206      -0.00781003
H       -0.53996257       2.04246058      10.61006081       18       0.00192343       0.00592520      -0.01736887
H        7.75074393       7.65577848       1.08955198       19      -0.01412700      -0.00173438       0.01442078
H        0.40405086       1.56419227       8.34367046       20      -0.01417573       0.02608059       0.01452379
H        6.80549726       8.13358771       3.35426562       21       0.07280645      -0.03650836       0.07722860
H        3.61498002       6.77130587       5.32057412       22       0.00430761      -0.01161226      -0.00697859
H        3.59611674       2.92662539       6.37881800       23      -0.03406914       0.00157286       0.04381455
H        1.92907185       4.96337707       5.44721279       24       0.00644287       0.00172567      -0.01365657
H        5.28150926       4.73470505       6.25274350       25      -0.00498275      -0.04026349      -0.03417170
H        0.54706232       6.74881826       9.15108688       26       0.07905634       0.04351266      -0.04523443
H        6.66288722       2.94874994       2.54962698       27      -0.05024687      -0.04963950       0.00079261
H        2.28462393       8.51400204       8.82206214       28       0.01080074      -0.01589669       0.02439885
H        4.92775768       1.18578897       2.87753779       29      -0.02467215      -0.00991882      -0.04229440
H       -0.58112313       4.78143992       8.38030760       30      -0.01808925      -0.05886416      -0.06203787
H        7.79146700       4.91545439       3.31991865       31       0.02767758       0.06239856       0.03724623
H        0.41461237       3.63901517       5.68340086       32      -0.00678257       0.05788345       0.06075451
H        6.79622400       6.05739270       6.01658174       33       0.04421272      -0.05975600      -0.09512872
H       -0.57130901       1.73310760       4.85056353       34      -0.04562202      -0.02335950      -0.01369697
H        7.78110316       7.96470854       6.84894951       35       0.08507079       0.01973092      -0.03002900
H        7.61465050      -0.06044756       4.95604575       36       0.03750214       0.00865503       0.00973712
H       -0.40505781       9.76039720       6.74185708       37      -0.03397826      -0.01195788      -0.00671247
H        6.06962519       1.43075402       8.48335982       38      -0.00286756       0.00035099       0.01430852
H        1.14142945       8.26715440       3.21668810       39      -0.02467111      -0.01453951       0.01262772
H        7.70344965       3.30292366       8.52895105       40       0.02376554      -0.00448398       0.00761318
H       -0.49200413       6.39493681       3.16979102       41      -0.02021831      -0.00896004      -0.01629548
C        6.11051682       7.44950061       8.60341984       42       0.07180947       0.00643022       0.03361714
C        1.10141910       2.24895176       3.09771574       43      -0.12676772      -0.09353704      -0.13427332
C        7.14533972       7.34027040       9.69566360       44       0.01802038      -0.06512238       0.02947864
C        0.06526673       2.35878020       2.00293308       45       0.02873525      -0.00609574       0.04399514
C        7.54595438       6.07440173      10.14778490       46      -0.00899886      -0.01824668      -0.07941282
C       -0.33551973       3.62368061       1.55267999       47      -0.01215908       0.02565379       0.03533567
C       -1.39059603       5.95424015      11.13564201       48       0.03196299       0.02685979       0.00284477
C        8.60146602       3.74336818       0.56357909       49      -0.02104676      -0.00069399       0.00928259
C       -0.80196047       7.10076772      11.68039336       50      -0.01025358      -0.03255593      -0.02781122
C        8.01305153       2.59824124       0.01862841       51       0.02252853      -0.06412344       0.04846347
C       -1.19322961       8.36619679      11.23463204       52      -0.01131624       0.02520944      -0.03827778
C        8.40399706       1.33073351       0.46503025       53       0.02546956       0.06827521       0.05114838
C       -2.17586371       8.48515311      10.25015488       54      -0.02758018       0.04876693       0.00613631
C        9.38686296       1.21227384       1.45033233       55      -0.02146933       0.02204423      -0.07087512
C        2.91700448       0.71429605       7.74627137       56      -0.01263601      -0.04959725       0.04922915
C        4.29411533       8.98466703       3.95274768       57       0.03470443       0.01010908       0.05431026
C        2.33008169       0.98184889       9.09814193       58       0.01103365       0.03757871       0.01470327
C        4.87978165       8.71626923       2.60171191       59       0.03169660      -0.05570167      -0.02041936
C        3.11766108       0.78470221      10.24118575       60      -0.02443710       0.03181827       0.00459918
C        4.09221432       8.91115592       1.45828301       61       0.01461880       0.00637420      -0.03863093
C        2.60365721       1.07524711      11.50292595       62       0.02135723      -0.03466952      -0.00701137
C        4.60699595       8.62304993       0.19519033       63      -0.02025221       0.02137814       0.09742628
C        1.29416835       1.54143885      11.63708467       64      -0.04841828      -0.01467615       0.02509385
C        5.91666829       8.15672679       0.06220955       65       0.02586650       0.02110489      -0.03821899
C        0.49152989       1.70496372      10.50214605       66      -0.00783205      -0.01749165       0.10167669
C        6.71891242       7.99379434       1.19659228       67       0.00919721       0.01588011      -0.00386459
C        1.00855209       1.43110288       9.23858150       68      -0.01959650      -0.00208407      -0.13535607
C        6.20205336       8.26692565       2.46274236       69      -0.03887016       0.01234823      -0.05275211
C        2.90485756       6.73080129       6.14508719       70       0.01841468       0.07253394      -0.01431805
C        4.30558259       2.96417317       5.55550362       71       0.07273570       0.01827926      -0.01473236
C        1.96555305       5.71777910       6.23301765       72      -0.04438992      -0.02282307       0.00028450
C        5.24585199       3.97895589       5.46562100       73      -0.00745225      -0.00423695       0.05813918
C        1.07164321       5.69214774       7.32302205       74      -0.00802391       0.00743447       0.08905023
C        6.14005906       4.00261013       4.37600301       75       0.01363330       0.10015719      -0.02042951
C        1.21018505       6.71598285       8.28383348       76      -0.00689110       0.03371780      -0.03308541
C        6.00114066       2.98101528       3.41591116       77      -0.02725367      -0.06061357       0.03733887
C        2.17096875       7.69999074       8.10967338       78       0.01156570      -0.03277057      -0.04276508
C        5.03955287       1.99872742       3.59003717       79      -0.02242920      -0.00147396       0.07191953
C        0.03222608       4.69343175       7.47875874       80       0.01082261       0.03208309       0.01119234
C        7.17769495       5.00439064       4.22030267       81       0.00385936      -0.07029927      -0.00714163
C       -0.20727310       3.70987832       6.58139621       82      -0.09696286      -0.04446098       0.02778965
C        7.42019667       5.98635450       5.11803940       83       0.01532206       0.06302643       0.01665542
C       -1.23045222       2.68878686       6.67763557       84       0.01240911       0.00593189      -0.03394869
C        8.44051988       7.00977414       5.02048042       85       0.02742595      -0.04954660       0.04786614
C        8.62852985       1.70849818       5.66975244       86       0.00778808       0.00868474      -0.01340955
C       -1.41664117       7.98791199       6.02926537       87      -0.03367254       0.05848429       0.06237948
C        7.67402445       0.70975828       5.72264847       88      -0.06446768      -0.02895612       0.00942522
C       -0.46218486       8.98903682       5.97627627       89       0.00075448      -0.03159538       0.01350904
C        6.81614822       1.53988314       7.69884584       90       0.04994562       0.01437462      -0.02331129
C        0.39391620       8.15568168       4.00169395       91       0.06253707       0.06219286      -0.02100697
C        7.73667312       2.57988320       7.71693918       92      -0.06625972      -0.03783303       0.01198517
C       -0.52396138       7.11634362       3.98262607       93      -0.00667246       0.02293968       0.00153019
N        3.00505465       7.72435745       7.05275996       94       0.06361869       0.06773983      -0.03231791
N        4.20615545       1.97099717       4.64863096       95      -0.04268551      -0.05651879      -0.01661865
N        6.77316976       0.61468235       6.71764190       96       0.01970746      -0.08960491      -0.01187396
N        0.43796342       9.08240178       4.98235355       97      -0.00726293       0.09354717      -0.01592300
O        5.64526776       8.64592063       8.42314289       98      -0.07051327      -0.04457569       0.00257065
O        1.56643325       1.05134890       3.27758876       99       0.04905036       0.08928791      -0.01317962
O        5.79703461       6.43123305       7.94042614      100       0.02357969       0.13415349       0.06915596
O        1.41358623       3.26661224       3.75855132      101       0.01011694      -0.06687841      -0.00802085
O        2.19153213       0.97907108       6.72597844      102       0.04228644      -0.00398927      -0.06612975
O        5.02069973       8.71756259       4.97465910      103      -0.10387367       0.03607022      -0.03258789
O        4.10319138       0.25924115       7.70219597      104      -0.04135055      -0.04238307       0.03068612
O        3.10740872       9.43827200       3.99820131      105       0.06547256       0.04034337      -0.03071186
106
Lattice="9.91338796 0.0 0.0 -0.9497162034572538 10.315372498067676 0.0 -1.7501761992704608 -0.6189087241773107 11.701663952731014" Properties=species:S:1:pos:R:3:spacegroup_kinds:I:1:forces:R:3 spacegroup="P 1" unit_cell=conventional occupancy="_JSON {\"0\": {\"Zn\": 1}, \"1\": {\"Zn\": 1}, \"2\": {\"H\": 1}, \"3\": {\"H\": 1}, \"4\": {\"H\": 1}, \"5\": {\"H\": 1}, \"6\": {\"H\": 1}, \"7\": {\"H\": 1}, \"8\": {\"H\": 1}, \"9\": {\"H\": 1}, \"10\": {\"H\": 1}, \"11\": {\"H\": 1}, \"12\": {\"H\": 1}, \"13\": {\"H\": 1}, \"14\": {\"H\": 1}, \"15\": {\"H\": 1}, \"16\": {\"H\": 1}, \"17\": {\"H\": 1}, \"18\": {\"H\": 1}, \"19\": {\"H\": 1}, \"20\": {\"H\": 1}, \"21\": {\"H\": 1}, \"22\": {\"H\": 1}, \"23\": {\"H\": 1}, \"24\": {\"H\": 1}, \"25\": {\"H\": 1}, \"26\": {\"H\": 1}, \"27\": {\"H\": 1}, \"28\": {\"H\": 1}, \"29\": {\"H\": 1}, \"30\": {\"H\": 1}, \"31\": {\"H\": 1}, \"32\": {\"H\": 1}, \"33\": {\"H\": 1}, \"34\": {\"H\": 1}, \"35\": {\"H\": 1}, \"36\": {\"H\": 1}, \"37\": {\"H\": 1}, \"38\": {\"H\": 1}, \"39\": {\"H\": 1}, \"40\": {\"H\": 1}, \"41\": {\"H\": 1}, \"42\": {\"C\": 1}, \"43\": {\"C\": 1}, \"44\": {\"C\": 1}, \"45\": {\"C\": 1}, \"46\": {\"C\": 1}, \"47\": {\"C\": 1}, \"48\": {\"C\": 1}, \"49\": {\"C\": 1}, \"50\": {\"C\": 1}, \"51\": {\"C\": 1}, \"52\": {\"C\": 1}, \"53\": {\"C\": 1}, \"54\": {\"C\": 1}, \"55\": {\"C\": 1}, \"56\": {\"C\": 1}, \"57\": {\"C\": 1}, \"58\": {\"C\": 1}, \"59\": {\"C\": 1}, \"60\": {\"C\": 1}, \"61\": {\"C\": 1}, \"62\": {\"C\": 1}, \"63\": {\"C\": 1}, \"64\": {\"C\": 1}, \"65\": {\"C\": 1}, \"66\": {\"C\": 1}, \"67\": {\"C\": 1}, \"68\": {\"C\": 1}, \"69\": {\"C\": 1}, \"70\": {\"C\": 1}, \"71\": {\"C\": 1}, \"72\": {\"C\": 1}, \"73\": {\"C\": 1}, \"74\": {\"C\": 1}, \"75\": {\"C\": 1}, \"76\": {\"C\": 1}, \"77\": {\"C\": 1}, \"78\": {\"C\": 1}, \"79\": {\"C\": 1}, \"80\": {\"C\": 1}, \"81\": {\"C\": 1}, \"82\": {\"C\": 1}, \"83\": {\"C\": 1}, \"84\": {\"C\": 1}, \"85\": {\"C\": 1}, \"86\": {\"C\": 1}, \"87\": {\"C\": 1}, \"88\": {\"C\": 1}, \"89\": {\"C\": 1}, \"90\": {\"C\": 1}, \"91\": {\"C\": 1}, \"92\": {\"C\": 1}, \"93\": {\"C\": 1}, \"94\": {\"N\": 1}, \"95\": {\"N\": 1}, \"96\": {\"N\": 1}, \"97\": {\"N\": 1}, \"98\": {\"O\": 1}, \"99\": {\"O\": 1}, \"100\": {\"O\": 1}, \"101\": {\"O\": 1}, \"102\": {\"O\": 1}, \"103\": {\"O\": 1}, \"104\": {\"O\": 1}, \"105\": {\"O\": 1}}" energy=-716.303955078125 free_energy=-716.303955078125 stress="0.001579004107043147 -0.00048696668818593025 7.126512355171144e-05 -0.00048696668818593025 0.0015025280881673098 6.818810652475804e-05 7.126512355171144e-05 6.818810652475804e-05 0.001822105492465198" pbc="T T T"
Zn       4.49799630       9.21921251       6.88149942        0       0.00952012       0.03622019      -0.02757707
Zn       2.70971765       0.48011307       4.81360006        1       0.00259387      -0.04952360       0.04666302
H        7.06703607       5.20002846       9.70399631        2       0.00810590      -0.02815837       0.00224984
H        0.13993790       4.50022368       1.99175717        3       0.00338896       0.04520470       0.01320623
H       -1.08054112       4.96901830      11.47902899        4       0.00850246       0.01352532      -0.00324072
H        8.28807426       4.72926369       0.21676617        5      -0.00136678      -0.01339620       0.01045727
H        1.71807077       7.62148520       0.74236498        6      -0.02879502       0.00477655      -0.00779519
H        5.48969412       2.07811387      10.95430484        7       0.04267064      -0.01050894       0.01992728
H       -0.73903427       9.26476547      11.65048515        8       0.02434332       0.01215341       0.04039036
H        7.94594557       0.43417097       0.04531990        9       0.00257486       0.02739849      -0.01415549
H        7.41507504       9.46367215       9.89300388       10       0.01208703       0.02189822      -0.00870777
H       -0.20614554       0.23506227       1.80396790       11      -0.01917897      -0.01469658       0.00674190
H        4.12827142       0.40367585      10.12067760       12       0.07224558      -0.00548504       0.00548795
H        3.07837562       9.29592870       1.57550347       13      -0.00622502      -0.02288985      -0.00903179
H        4.97638561       1.55095391       0.68055706       14      -0.04343829       0.02076760       0.02232928
H        2.23024957       8.14752372      11.01560830       15       0.04848281      -0.02012681      -0.01190610
H        2.64354080       2.38171126       0.92416548       16       0.02466178      -0.00234013       0.03739759
H        4.56280111       7.31528733      10.77267747       17      -0.00980537       0.00163000      -0.05156676
H       -0.54073593       2.04318481      10.60885471       18      -0.02157002       0.01244036      -0.00874494
H        7.74912409       7.65645135       1.08870901       19       0.01800932      -0.01089806       0.01236498
H        0.40176126       1.56575304       8.34312650       20      -0.04568562       0.03215501      -0.03981598
H        6.80537105       8.13203242       3.35398648       21       0.03525467      -0.02700781       0.03317114
H        3.61420552       6.77187409       5.31979291       22       0.00074098      -0.01136060      -0.01420462
H        3.59353170       2.92782867       6.37891004       23      -0.00124094       0.00183526       0.00389211
H        1.92839412       4.96416850       5.44688960       24       0.00084846      -0.02832000      -0.04341057
H        5.27942778       4.73373888       6.25092829       25      -0.00096112      -0.00263558       0.00663874
H        0.54657018       6.75034002       9.14947421       26       0.08427700       0.04317496      -0.05063227
H        6.66022800       2.94835387       2.54883272       27      -0.04576313      -0.05625270      -0.00891826
H        2.28366708       8.51444131       8.82058898       28       0.00968525      -0.01688367       0.03045941
H        4.92539645       1.18666111       2.87505420       29      -0.01189532       0.04439539       0.00842825
H       -0.58164547       4.78150042       8.37826546       30      -0.03661872      -0.04824115      -0.03144242
H        7.79068469       4.91723890       3.31992756       31       0.04033778       0.04278416       0.00491646
H        0.41248645       3.64099955       5.68407228       32       0.00665892       0.04053125       0.02724434
H        6.79622550       6.05577412       6.01446675       33       0.01814125      -0.04753723      -0.05544026
H       -0.57399836       1.73319758       4.84917835       34      -0.02510799      -0.02169576      -0.03320280
H        7.78067484       7.96595680       6.84738216       35       0.07362807       0.02129425      -0.00488950
H        7.61358581      -0.05892206       4.95498571       36       0.03363624      -0.00966320      -0.00807510
H       -0.40754421       9.76164129       6.73937460       37      -0.03439967       0.00452688       0.01160508
H        6.06865674       1.43042244       8.48217842       38      -0.00208861       0.00612561       0.01397795
H        1.13949843       8.26784187       3.21700203       39       0.00792684      -0.00709283      -0.02120549
H        7.70230694       3.30462585       8.52743964       40       0.02056292      -0.02508278      -0.00662959
H       -0.49352498       6.39523811       3.16801156       41      -0.01827919       0.01440613       0.00427020
C        6.11028975       7.45026859       8.60265668       42       0.06495619       0.10061655       0.08643043
C        1.09885383       2.24788172       3.09624397       43      -0.11704224      -0.04849719      -0.15361792
C        7.14492487       7.34042895       9.69518971       44      -0.00615343      -0.03317599      -0.00221035
C        0.06400011       2.35954209       2.00210855       45      -0.01871151      -0.02714242       0.00719899
C        7.54481905       6.07456148      10.14543831       46       0.02316947      -0.01201135      -0.03038855
C       -0.33748822       3.62536830       1.55242702       47       0.00250788      -0.01859668       0.03209101
C       -1.39169274       5.95495638      11.13462623       48      -0.00870679       0.03612112      -0.04383644
C        8.60046154       3.74411932       0.56279233       49      -0.04088621      -0.05200471       0.00679943
C       -0.80357160       7.10101784      11.67859507       50       0.02612874      -0.00170250       0.00771803
C        8.01155943       2.59761290       0.01847540       51      -0.01629949       0.04691093      -0.00282955
C       -1.19424263       8.36726298      11.23256473       52      -0.01608755      -0.02314635      -0.02893414
C        8.40260420       1.33221456       0.46497761       53      -0.03408812      -0.04397821      -0.01111511
C       -2.17738004       8.48611750      10.24926914       54      -0.00550280       0.01748608       0.01154123
C        9.38472512       1.21259679       1.44829974       55       0.06054195       0.03046755       0.01920911
C        2.91521211       0.71516870       7.74579906       56       0.02274483      -0.06973857       0.01363242
C        4.29319096       8.98535529       3.95213088       57       0.02270816      -0.00147034      -0.03772816
C        2.32800527       0.98335389       9.09729545       58       0.03048076       0.02688331       0.00501919
C        4.87880723       8.71637175       2.60008830       59       0.01218794      -0.04269462      -0.00099316
C        3.11719079       0.78522297      10.24050091       60      -0.09648372       0.05889389      -0.01461559
C        4.09123768       8.91218904       1.45649348       61      -0.02043071       0.01029192       0.00250530
C        2.60189682       1.07597421      11.50161800       62       0.03540312      -0.04288938      -0.00988945
C        4.60530085       8.62369008       0.19463438       63       0.01885978       0.00073370       0.01249544
C        1.29235577       1.54168318      11.63633817       64      -0.03294058      -0.02049911      -0.02459897
C        5.91571659       8.15667342       0.06028034       65      -0.00505998       0.04778817       0.05404149
C        0.48999254       1.70544445      10.50172299       66       0.01005644      -0.02727774       0.03133047
C        6.71840132       7.99458053       1.19559599       67      -0.04614562       0.01638997      -0.04332950
C        1.00598179       1.43221739       9.23574337       68       0.03035818      -0.00573155       0.00773466
C        6.20041691       8.26644816       2.46155183       69       0.00951689       0.01022040      -0.01247996
C        2.90326574       6.73244334       6.14351154       70      -0.02209216       0.03099231       0.00445715
C        4.30434195       2.96531403       5.55482376       71       0.02446818      -0.05647434      -0.03140581
C        1.96308037       5.71767780       6.23183347       72       0.01911385       0.06505754       0.02965560
C        5.24485419       3.97889537       5.46517151       73       0.01337158      -0.00976762       0.01440553
C        1.06981096       5.69178824       7.32258027       74       0.03110734       0.03904250       0.04437664
C        6.14006485       4.00407687       4.37545953       75      -0.05606124      -0.02177993      -0.05502171
C        1.20961190       6.71680207       8.28182311       76      -0.02740867       0.02444711       0.00354834
C        5.99899963       2.97993112       3.41512625       77       0.05228288       0.07647996       0.08551935
C        2.17055779       7.70009096       8.10864621       78       0.01982568      -0.00696528      -0.06087992
C        5.03850381       2.00003624       3.59056494       79      -0.06107811      -0.14149860      -0.05317298
C        0.03101953       4.69492025       7.47736865       80      -0.02999820      -0.05562776      -0.01560140
C        7.17675267       5.00292468       4.21918013       81       0.04002315       0.04239896       0.05028591
C       -0.21002052       3.70906657       6.58062410       82      -0.04303440       0.06610993       0.06511980
C        7.41932029       5.98718386       5.11690216       83       0.01328339      -0.00715935      -0.03090793
C       -1.23217357       2.69020183       6.67550548       84      -0.02439482      -0.05342418      -0.00288367
C        8.43909359       7.00951557       5.02056704       85       0.07829742      -0.00570610       0.01032858
C        8.62743756       1.70866397       5.66868158       86      -0.02956924       0.01825546      -0.00269101
C       -1.41636895       7.98883125       6.02925235       87      -0.07180169       0.00221281       0.03030086
C        7.67180304       0.71076781       5.72115571       88      -0.04608315      -0.02845275       0.03562638
C       -0.46411121       8.99006432       5.97498403       89       0.04041063      -0.00405639      -0.00655279
C        6.81453708       1.54108159       7.69718891       90       0.03911927      -0.03580726      -0.01203924
C        0.39292596       8.15731951       4.00108577       91       0.00763702       0.02811125      -0.01150596
C        7.73528441       2.57988010       7.71597931       92      -0.05200803       0.00901446       0.00191485
C       -0.52558612       7.11753581       3.98124796       93      -0.00904587       0.01200412       0.01940247
N        3.00418626       7.72664239       7.05095577       94       0.04405905       0.02166621      -0.04066286
N        4.20457765       1.97077047       4.64625418       95      -0.07470796       0.01536721       0.11314788
N        6.77224953       0.61362618       6.71716538       96       0.01999263      -0.04479995      -0.02208424
N        0.43601447       9.08479866       4.98046607       97      -0.01590361       0.07912457       0.00268976
O        5.64278930       8.64581518       8.42125879       98      -0.04921789      -0.01851588       0.02206105
O        1.56626511       1.05321052       3.27646538       99       0.05453748      -0.00920027      -0.02205999
O        5.79564072       6.43405454       7.94158813      100       0.00215812      -0.00073659      -0.00899401
O        1.41182440       3.26505317       3.75594777      101       0.01530434       0.00507534       0.03609952
O        2.19129278       0.97904623       6.72362209      102       0.03894521       0.00184014      -0.02660103
O        5.01863301       8.71846114       4.97262059      103      -0.04317367       0.01853981       0.03884102
O        4.10156853       0.25857087       7.70193698      104      -0.07518055      -0.02166753       0.04227262
O        3.10677135       9.43775908       3.99723465      105       0.01527516       0.06620601      -0.02939560
106