84
Lattice="6.8712856 0.0 0.0 3.1045977361103506e-05 7.120340539932316 0.0 -2.889954120779903 0.00010655265587008499 16.09804057198744" Properties=species:S:1:pos:R:3:spacegroup_kinds:I:1:forces:R:3 spacegroup="P 1" unit_cell=conventional occupancy="_JSON {\"0\": {\"Cd\": 1}, \"1\": {\"Cd\": 1}, \"2\": {\"Cd\": 1}, \"3\": {\"Cd\": 1}, \"4\": {\"P\": 1}, \"5\": {\"P\": 1}, \"6\": {\"P\": 1}, \"7\": {\"P\": 1}, \"8\": {\"H\": 1}, \"9\": {\"H\": 1}, \"10\": {\"H\": 1}, \"11\": {\"H\": 1}, \"12\": {\"H\": 1}, \"13\": {\"H\": 1}, \"14\": {\"H\": 1}, \"15\": {\"H\": 1}, \"16\": {\"H\": 1}, \"17\": {\"H\": 1}, \"18\": {\"H\": 1}, \"19\": {\"H\": 1}, \"20\": {\"H\": 1}, \"21\": {\"H\": 1}, \"22\": {\"H\": 1}, \"23\": {\"H\": 1}, \"24\": {\"H\": 1}, \"25\": {\"H\": 1}, \"26\": {\"H\": 1}, \"27\": {\"H\": 1}, \"28\": {\"H\": 1}, \"29\": {\"H\": 1}, \"30\": {\"H\": 1}, \"31\": {\"H\": 1}, \"32\": {\"H\": 1}, \"33\": {\"H\": 1}, \"34\": {\"H\": 1}, \"35\": {\"H\": 1}, \"36\": {\"H\": 1}, \"37\": {\"H\": 1}, \"38\": {\"H\": 1}, \"39\": {\"H\": 1}, \"40\": {\"H\": 1}, \"41\": {\"H\": 1}, \"42\": {\"H\": 1}, \"43\": {\"H\": 1}, \"44\": {\"H\": 1}, \"45\": {\"H\": 1}, \"46\": {\"H\": 1}, \"47\": {\"H\": 1}, \"48\": {\"C\": 1}, \"49\": {\"C\": 1}, \"50\": {\"C\": 1}, \"51\": {\"C\": 1}, \"52\": {\"C\": 1}, \"53\": {\"C\": 1}, \"54\": {\"C\": 1}, \"55\": {\"C\": 1}, \"56\": {\"N\": 1}, \"57\": {\"N\": 1}, \"58\": {\"N\": 1}, \"59\": {\"N\": 1}, \"60\": {\"Cl\": 1}, \"61\": {\"Cl\": 1}, \"62\": {\"Cl\": 1}, \"63\": {\"Cl\": 1}, \"64\": {\"O\": 1}, \"65\": {\"O\": 1}, \"66\": {\"O\": 1}, \"67\": {\"O\": 1}, \"68\": {\"O\": 1}, \"69\": {\"O\": 1}, \"70\": {\"O\": 1}, \"71\": {\"O\": 1}, \"72\": {\"O\": 1}, \"73\": {\"O\": 1}, \"74\": {\"O\": 1}, \"75\": {\"O\": 1}, \"76\": {\"O\": 1}, \"77\": {\"O\": 1}, \"78\": {\"O\": 1}, \"79\": {\"O\": 1}, \"80\": {\"O\": 1}, \"81\": {\"O\": 1}, \"82\": {\"O\": 1}, \"83\": {\"O\": 1}}" energy=-452.6298828125 free_energy=-452.6298828125 stress="-0.00730948755517602 7.483358785975724e-05 0.0006530498503707349 7.483358785975724e-05 -0.009983879514038563 2.5396553610335104e-05 0.0006530498503707349 2.5396553610335104e-05 -0.011843707412481308" pbc="T T T"
Cd       0.65455182       6.44934235      14.25024793        0       0.00812215       0.18681526      -0.20087206
Cd       5.53620463       4.22759399       6.20136853        1      -0.00724006      -0.17220667      -0.19353138
Cd       3.32526848       0.66744679       1.84715186        2       0.00966207      -0.17533092       0.19384769
Cd      -1.55366918       2.89121749       9.89611943        3      -0.00179524       0.18271491       0.19339210
P        4.08549511       6.69043006      13.79246187        4      -0.24830315       0.33405089       0.18818396
P        2.09228723       3.98959335       5.74090237        5      -0.07886762      -0.32524401       0.21311748
P       -0.10176140       0.42965248       2.30464617        6       0.11739615      -0.31992054      -0.07064438
P        1.88903162       3.12955045      10.35380576        7       0.13555279       0.35939515      -0.10156561
H        2.97720907       1.62924015      15.53677832        8      -0.05649681      -0.18059883      -0.02625803
H        0.98575637       1.93089937       7.48797892        9      -0.10892291       0.20438346      -0.01764613
H        1.00366460       5.49079775       0.55807243       10       0.10773057       0.19485091       0.01766723
H        2.99451602       5.19009432       8.60810464       11       0.04728853      -0.18136588       0.02451853
H       -2.30933765       1.38232805      15.97243882       12       0.03482925      -0.02876561      -0.16105525
H        2.57131141       2.17592536       7.92361422       13       0.01721960       0.03546949      -0.16058289
H        6.29141382       5.73757485       0.12409500       14      -0.04944264       0.03523805       0.13961035
H        1.40986689       4.94491365       8.17302711       15      -0.06538528      -0.06597087       0.12835953
H        0.53812014       3.57488641      14.22684742       16      -0.02183895      -0.01553854      -0.07891182
H        5.41820569       7.10524796       6.17796100       17      -0.02545336       0.03347410      -0.06160937
H        3.44112061       3.54585302       1.87033789       18       0.02959561       0.09179219      -0.01016663
H       -1.44040246       0.01478912       9.92005969       19       0.03927621      -0.07990424      -0.01161712
H        1.25331153       3.70439315      12.82867856       20      -0.00127593       0.05909936       0.09758956
H       -0.73869574       6.97568161       4.78089820       21       0.01699638      -0.03992835       0.08021910
H        2.72763155       3.41529848       3.26821265       22       0.01686850      -0.05457739      -0.11829367
H        4.71891718       0.14409564      11.31623224       23       0.01338248       0.06948245      -0.09658311
H        1.24010322       1.23228202      12.11915395       24      -0.10394851      -0.00926246       0.08293666
H        6.12101877       2.32833402       4.07202457       25      -0.09853859      -0.00179006       0.07644275
H        2.74087602       5.88770507       3.97748391       26       0.10558710       0.01731721      -0.08519556
H       -2.14013338       4.79308405      12.02603538       27       0.10568485      -0.02604661      -0.08749619
H       -0.06992850       0.47423659      11.63305554       28      -0.04044470      -0.01879574       0.02552927
H        4.81065753       3.08785570       3.58404776       29       0.01124041       0.02167079       0.06180844
H        4.05173129       6.64732525       4.46298658       30      -0.00833538       0.02433714      -0.06031543
H       -0.82956966       4.03365124      12.51228880       31      -0.03012510      -0.03047636      -0.08074030
H       -1.66322715       1.71406747      13.57638669       32       0.04350104      -0.04942733      -0.21632609
H        3.21858351       1.84534686       5.52756006       33       0.07752603       0.04103608      -0.21013206
H        5.64190394       5.40535378       2.51978002       34       0.01953437       0.07261060       0.19265944
H        0.76200245       5.27533184      10.56902094       35       0.00247502      -0.07216913       0.20304236
H        3.47652995       1.87585003      13.19586231       36       0.08243698      -0.10786410      -0.13781738
H        1.48833532       1.68313491       5.14902293       37       0.07808249       0.10453153      -0.16015059
H        0.50270127       5.24162481       2.89980562       38      -0.05755567       0.09607087       0.16318238
H        2.49320111       5.43962414      10.94886138       39      -0.05454978      -0.09792873       0.16072945
H        3.52875276       3.84098418      14.64296358       40       0.11128321       0.10415855      -0.12392220
H        1.53697640       6.83943754       6.59388985       41       0.10867200      -0.09823644      -0.11412839
H        0.45119242       3.28082117       1.45283968       42      -0.05133848      -0.14225812       0.18883276
H        2.44176059       0.28134038       9.50268740       43      -0.08845675       0.10641687       0.15083523
H       -1.66439985       3.54916432      15.15837747       44       0.02413297       0.18296303      -0.15195996
H        3.21491954       0.00989156       7.10918854       45      -0.02952963      -0.16346699      -0.13537872
H        5.64512693       3.57088430       0.93920170       46       0.04699636      -0.16525465       0.13174576
H        0.76392310       7.11000763       8.98888452       47       0.01249783       0.17036399       0.14446011
C        4.19957379       1.39475390      13.87259292       48      -0.04174794       0.06480999       0.50263214
C        2.21173387       2.16569633       5.82361155       49      -0.12606955      -0.07753222       0.52352899
C       -0.21827836       5.72515359       2.22475510       50      -0.01917381      -0.07391345      -0.54227281
C        1.77247351       4.95564347      10.27387929       51      -0.02247685       0.04636130      -0.54058635
C       -2.71555261       3.33766476      15.39104302       52      -0.13068867      -0.26781222      -0.10157228
C        2.16242829       0.22334155       7.34307206       53      -0.07511950       0.22258908      -0.13938269
C        6.69858640       3.78331196       0.70610848       54      -0.00215354       0.26294914       0.03834066
C        1.81606631       6.89711955       8.75591762       55       0.06322852      -0.22790632       0.06826293
N        3.95379128       1.87410219      15.25954456       56      -0.03153419       0.58694327       0.20242575
N        1.96051797       1.68632324       7.21119805       57       0.08578680      -0.58803272       0.17536533
N        0.02891281       5.24610022       0.83552020       58      -0.02536639      -0.57962054      -0.10890082
N        2.01742342       5.43436294       8.88508823       59       0.07752033       0.60158658      -0.12238193
Cl       0.60834619       1.76892031      15.40404250       60       0.12155577       0.01426980       0.10290377
Cl       5.48895070       1.79155332       7.35637631       61       0.12018678      -0.02245034       0.10303577
Cl       3.37226642       5.34910276       0.69283962       62      -0.12219277      -0.01061637      -0.10790867
Cl      -1.50807281       5.33025120       8.74158646       63      -0.12486193       0.01176817      -0.10659799
O        3.96699312       6.32684425      12.30384526       64      -0.09700398      -0.26899371      -0.20448171
O        1.97603371       4.35521337       4.25264403       65      -0.11184135       0.26003569      -0.19029099
O        0.01573135       0.79456203       3.79647674       66       0.09376457       0.24366239       0.08148706
O        2.00418015       2.76751171      11.84542484       67       0.11012208      -0.26145968       0.11881351
O        2.84980606       6.29899143      14.63769596       68      -0.04084051      -0.03035389      -0.19711001
O        0.86085634       4.37848624       6.58814560       69      -0.12298355       0.05861038      -0.16933286
O        1.13062659       0.82069768       1.45963262       70       0.10641512       0.05543767       0.15876827
O        3.12213908       2.73838167       9.50888638       71       0.08739334      -0.05129465       0.17516455
O        0.74421689       0.36714860      12.20042442       72       0.04570289      -0.09514672       0.04410243
O        5.62609294       3.19373918       4.15299500       73      -0.01579169       0.09591872       0.00001377
O        3.23579225       6.75351986       3.89480125       74       0.00600868       0.07998425       0.00195986
O       -1.64572618       3.92663431      11.94317458       75       0.03105550      -0.06117606       0.02984613
O        0.60464898       4.18944992      13.45894467       76      -0.13563392      -0.01944464       0.00547341
O        5.48309110       6.49252160       5.40925103       77      -0.13904372      -0.01862761       0.00806801
O        3.37762518       2.93354718       2.63665476       78       0.10562141      -0.06808192       0.10628107
O       -1.50254873       0.62792580      10.68615527       79       0.09082360       0.03586531       0.08881067
O       -1.53496653       6.12703512      14.47973128       80       0.15521204      -0.06901346      -0.07329807
O        3.34595467       4.55232300       6.42983035       81       0.09842011       0.05146390      -0.11224083
O        5.51567172       0.99133861       1.61685854       82      -0.10406351       0.05301325       0.10687812
O        0.63500999       2.56765706       9.66781181       83      -0.10595667      -0.05970649       0.08838686
84
Lattice="6.8712856 0.0 0.0 3.1045977361103506e-05 7.120340539932316 0.0 -2.889954120779903 0.00010655265587008499 16.09804057198744" Properties=species:S:1:pos:R:3:spacegroup_kinds:I:1:forces:R:3 spacegroup="P 1" unit_cell=conventional occupancy="_JSON {\"0\": {\"Cd\": 1}, \"1\": {\"Cd\": 1}, \"2\": {\"Cd\": 1}, \"3\": {\"Cd\": 1}, \"4\": {\"P\": 1}, \"5\": {\"P\": 1}, \"6\": {\"P\": 1}, \"7\": {\"P\": 1}, \"8\": {\"H\": 1}, \"9\": {\"H\": 1}, \"10\": {\"H\": 1}, \"11\": {\"H\": 1}, \"12\": {\"H\": 1}, \"13\": {\"H\": 1}, \"14\": {\"H\": 1}, \"15\": {\"H\": 1}, \"16\": {\"H\": 1}, \"17\": {\"H\": 1}, \"18\": {\"H\": 1}, \"19\": {\"H\": 1}, \"20\": {\"H\": 1}, \"21\": {\"H\": 1}, \"22\": {\"H\": 1}, \"23\": {\"H\": 1}, \"24\": {\"H\": 1}, \"25\": {\"H\": 1}, \"26\": {\"H\": 1}, \"27\": {\"H\": 1}, \"28\": {\"H\": 1}, \"29\": {\"H\": 1}, \"30\": {\"H\": 1}, \"31\": {\"H\": 1}, \"32\": {\"H\": 1}, \"33\": {\"H\": 1}, \"34\": {\"H\": 1}, \"35\": {\"H\": 1}, \"36\": {\"H\": 1}, \"37\": {\"H\": 1}, \"38\": {\"H\": 1}, \"39\": {\"H\": 1}, \"40\": {\"H\": 1}, \"41\": {\"H\": 1}, \"42\": {\"H\": 1}, \"43\": {\"H\": 1}, \"44\": {\"H\": 1}, \"45\": {\"H\": 1}, \"46\": {\"H\": 1}, \"47\": {\"H\": 1}, \"48\": {\"C\": 1}, \"49\": {\"C\": 1}, \"50\": {\"C\": 1}, \"51\": {\"C\": 1}, \"52\": {\"C\": 1}, \"53\": {\"C\": 1}, \"54\": {\"C\": 1}, \"55\": {\"C\": 1}, \"56\": {\"N\": 1}, \"57\": {\"N\": 1}, \"58\": {\"N\": 1}, \"59\": {\"N\": 1}, \"60\": {\"Cl\": 1}, \"61\": {\"Cl\": 1}, \"62\": {\"Cl\": 1}, \"63\": {\"Cl\": 1}, \"64\": {\"O\": 1}, \"65\": {\"O\": 1}, \"66\": {\"O\": 1}, \"67\": {\"O\": 1}, \"68\": {\"O\": 1}, \"69\": {\"O\": 1}, \"70\": {\"O\": 1}, \"71\": {\"O\": 1}, \"72\": {\"O\": 1}, \"73\": {\"O\": 1}, \"74\": {\"O\": 1}, \"75\": {\"O\": 1}, \"76\": {\"O\": 1}, \"77\": {\"O\": 1}, \"78\": {\"O\": 1}, \"79\": {\"O\": 1}, \"80\": {\"O\": 1}, \"81\": {\"O\": 1}, \"82\": {\"O\": 1}, \"83\": {\"O\": 1}}" energy=-452.6743469238281 free_energy=-452.6743469238281 stress="-0.006164640188217163 -5.185690679354593e-05 0.0007416196167469025 -5.185690679354593e-05 -0.010252708569169044 -8.05738236522302e-05 0.0007416196167469025 -8.05738236522302e-05 -0.010338949970901012" pbc="T T T"
Cd       0.65599128       6.45206370      14.24730527        0      -0.01022620       0.17828526      -0.19913393
Cd       5.53641357       4.22611621       6.19937820        1      -0.01600250      -0.17185155      -0.19309071
Cd       3.32552162       0.66478389       1.84808479        2       0.01995369      -0.16816606       0.18928069
Cd      -1.55483714       2.89370329       9.89872550        3       0.01581676       0.17963527       0.18545681
P        4.08359547       6.69187063      13.79356964        4      -0.14661542       0.23023731       0.06389111
P        2.09187484       3.98680883       5.74307409        5      -0.07277738      -0.17987013       0.00292325
P       -0.09922051       0.42667127       2.30225828        6       0.01713311      -0.16784436       0.10033424
P        1.89104828       3.13247098      10.35093148        7       0.01602281       0.23235124       0.07963064
H        2.97491061       1.62720689      15.53690032        8      -0.04193196      -0.15473983      -0.02791895
H        0.98278132       1.93254151       7.48561786        9      -0.02482045       0.16089153      -0.01930027
H        1.00356302       5.49351776       0.55673457       10       0.03234855       0.14107731       0.02535454
H        2.99612147       5.18796749       8.60760107       11      -0.00883196      -0.14466718       0.03602210
H       -2.30930598       1.38223322      15.96955230       12       0.00046737       0.00916684      -0.16405056
H        2.57047869       2.17821317       7.92120686       13       0.01200336      -0.00492539      -0.14256328
H        6.29092744       5.73918494       0.12448146       14      -0.06941190       0.01815077       0.11348154
H        1.40794830       4.94380379       8.17453237       15      -0.01820277      -0.01658467       0.15551710
H        0.53850285       3.57509984      14.22672075       16      -0.02396294      -0.00026275      -0.09994650
H        5.41586341       7.10675867       6.17526292       17      -0.02588098       0.01816641      -0.07092211
H        3.44088695       3.54862505       1.86900452       18       0.02644446       0.03117812       0.06277114
H       -1.44136589       0.01407722       9.92110884       19       0.04564615      -0.09938378      -0.04565609
H        1.25443089       3.70555303      12.82965534       20       0.00019950       0.04191927       0.08025553
H       -0.73946993       6.97451271       4.78074417       21       0.02105189      -0.03108333       0.06718963
H        2.72548276       3.41648332       3.26660176       22       0.02637823      -0.05252449      -0.11282277
H        4.71745536       0.14699216      11.31443046       23       0.01019025       0.05696920      -0.08517204
H        1.23738110       1.23185305      12.12040151       24      -0.05457973       0.07221165       0.06844715
H        6.11930863       2.32750480       4.07353369       25      -0.12736033       0.06970037       0.08266979
H        2.74334851       5.88903013       3.97483225       26       0.08087248      -0.00267938      -0.08595371
H       -2.13810471       4.79184445      12.02330134       27       0.04510073       0.06724924      -0.07454107
H       -0.07112190       0.47397054      11.63236993       28       0.00252664      -0.02494869       0.05210716
H        4.81018825       3.08682962       3.58412866       29      -0.01915332       0.03600457       0.04844117
H        4.04950800       6.64869382       4.46232662       30       0.04403287       0.03034885      -0.03771330
H       -0.83222094       4.03463978      12.51138044       31       0.05021324      -0.03031326      -0.03004068
H       -1.66187580       1.71477598      13.57349743       32      -0.03701567      -0.08105912      -0.16295791
H        3.21877136       1.84505844       5.52477575       33      -0.00981610       0.07664662      -0.16652533
H        5.64236166       5.40696562       2.52183637       34       0.03861381       0.07882460       0.16996679
H        0.76139824       5.27547463      10.57143887       35       0.04033419      -0.08325624       0.17021607
H        3.47785542       1.87344640      13.19290352       36       0.10444359      -0.12455665      -0.09327840
H        1.49052961       1.68456591       5.14825356       37       0.04389378       0.09385656      -0.16207936
H        0.50132403       5.24266084       2.90097203       38      -0.05387158       0.09278782       0.13337457
H        2.49251181       5.43880104      10.95017244       39      -0.06859533      -0.10515357       0.13167140
H        3.53003712       3.84319796      14.64051777       40       0.11188050       0.07689072      -0.10250752
H        1.53893653       6.83803437       6.59124549       41       0.07964824      -0.08613141      -0.12071019
H        0.44864730       3.27833089       1.45421560       42      -0.08474031      -0.08661064       0.13466695
H        2.43903936       0.28370114       9.50415741       43      -0.09505428       0.07551038       0.10923754
H       -1.66402858       3.55178372      15.15548714       44      -0.07193476       0.14104937      -0.12015267
H        3.21517416       0.00720262       7.10640048       45      -0.12840386      -0.12600762      -0.11100946
H        5.64368697       3.56904615       0.94084779       46       0.06829567      -0.14457488       0.11922070
H        0.76326304       7.11223695       8.99089705       47       0.07259350       0.13762441       0.12161203
C        4.19952463       1.39418416      13.87555562       48      -0.00804012       0.13128975       0.35704762
C        2.20994513       2.16622081       5.82653445       49       0.01836945      -0.13521014       0.42616591
C       -0.21762492       5.72480022       2.22176034       50      -0.05294994      -0.09727061      -0.47675383
C        1.77241256       4.95715733      10.27088763       51      -0.03407474       0.05569933      -0.41978288
C       -2.71752177       3.33513265      15.38961254       52      -0.05323378      -0.06062405      -0.07018575
C        2.15997796       0.22600540       7.34074237       53       0.08343112       0.02081415      -0.06027728
C        6.69687227       3.78612060       0.70634856       54       0.01675721       0.03984103       0.00486436
C        1.81647899       6.89485177       8.75556828       55       0.00169111      -0.03405140       0.05937977
N        3.95103301       1.87702493      15.25922847       56       0.00580417       0.41655111       0.23220426
N        1.96054569       1.68334219       7.21144576       57      -0.03903762      -0.39330825       0.18169314
N        0.02675046       5.24324051       0.83311784       58       0.09783366      -0.40186936      -0.06291211
N        2.01804446       5.43707019       8.88535434       59       0.08615998       0.43725669      -0.22345275
Cl       0.61009281       1.76794973      15.40479885       60       0.12061413       0.01842519       0.09976682
Cl       5.49008365       1.79095197       7.35727318       61       0.12216659      -0.02160569       0.09920830
Cl       3.36965767       5.34751568       0.69085812       62      -0.12598395      -0.00769997      -0.10738982
Cl      -1.50955379       5.33024352       8.73886275       63      -0.12767994       0.01261278      -0.10136475
O        3.96527279       6.32390229      12.30193432       64      -0.08679810      -0.20342237      -0.08017030
O        1.97473399       4.35803465       4.24973622       65      -0.09175320       0.18590933       0.00432616
O        0.01723847       0.79723088       3.79891208       66       0.07901067       0.17412767      -0.09692422
O        2.00544891       2.76470223      11.84641443       67       0.10308224      -0.18600772      -0.03115746
O        2.84839516       6.29815504      14.63602688       68      -0.04208329      -0.02915225      -0.16271049
O        0.85810779       4.37823350       6.58534198       69      -0.08469501       0.05596106      -0.13404599
O        1.13299652       0.82134632       1.46083834       70       0.09369147       0.04958772       0.12379710
O        3.12351394       2.73671188       9.51082862       71       0.09720117      -0.04417750       0.12157062
O        0.74537011       0.36710770      12.19904771       72      -0.04845986      -0.16822991       0.02197149
O        5.62473005       3.19649145       4.15246789       73       0.05318643      -0.00123546      -0.00278530
O        3.23630465       6.75552212       3.89279090       74      -0.03169154       0.08097500      -0.01011911
O       -1.64559518       3.92755999      11.94279634       75       0.00574943      -0.15521049      -0.02868977
O        0.60233738       4.18844787      13.45686098       76      -0.12984771      -0.01928076       0.04633534
O        5.48024645       6.49246175       5.40717271       77      -0.13696811      -0.00646001       0.03386296
O        3.37784494       2.93463975       2.63694846       78       0.09847566      -0.01277953       0.02963077
O       -1.50206497       0.62827755      10.68535927       79       0.08490187       0.05621475       0.11915317
O       -1.53309607       6.12584127      14.47762559       80       0.07248792      -0.03370884      -0.09062943
O        3.34745486       4.55364611       6.42733671       81       0.04033166       0.02521139      -0.10520861
O        5.51367064       0.99244431       1.61890657       82       0.00684893       0.00473642       0.12698729
O        0.63260324       2.56692705       9.66967698       83      -0.01141372      -0.01344714       0.10090188
84
Lattice="6.8712856 0.0 0.0 3.1045977361103506e-05 7.120340539932316 0.0 -2.889954120779903 0.00010655265587008499 16.09804057198744" Properties=species:S:1:pos:R:3:spacegroup_kinds:I:1:forces:R:3 spacegroup="P 1" unit_cell=conventional occupancy="_JSON {\"0\": {\"Cd\": 1}, \"1\": {\"Cd\": 1}, \"2\": {\"Cd\": 1}, \"3\": {\"Cd\": 1}, \"4\": {\"P\": 1}, \"5\": {\"P\": 1}, \"6\": {\"P\": 1}, \"7\": {\"P\": 1}, \"8\": {\"H\": 1}, \"9\": {\"H\": 1}, \"10\": {\"H\": 1}, \"11\": {\"H\": 1}, \"12\": {\"H\": 1}, \"13\": {\"H\": 1}, \"14\": {\"H\": 1}, \"15\": {\"H\": 1}, \"16\": {\"H\": 1}, \"17\": {\"H\": 1}, \"18\": {\"H\": 1}, \"19\": {\"H\": 1}, \"20\": {\"H\": 1}, \"21\": {\"H\": 1}, \"22\": {\"H\": 1}, \"23\": {\"H\": 1}, \"24\": {\"H\": 1}, \"25\": {\"H\": 1}, \"26\": {\"H\": 1}, \"27\": {\"H\": 1}, \"28\": {\"H\": 1}, \"29\": {\"H\": 1}, \"30\": {\"H\": 1}, \"31\": {\"H\": 1}, \"32\": {\"H\": 1}, \"33\": {\"H\": 1}, \"34\": {\"H\": 1}, \"35\": {\"H\": 1}, \"36\": {\"H\": 1}, \"37\": {\"H\": 1}, \"38\": {\"H\": 1}, \"39\": {\"H\": 1}, \"40\": {\"H\": 1}, \"41\": {\"H\": 1}, \"42\": {\"H\": 1}, \"43\": {\"H\": 1}, \"44\": {\"H\": 1}, \"45\": {\"H\": 1}, \"46\": {\"H\": 1}, \"47\": {\"H\": 1}, \"48\": {\"C\": 1}, \"49\": {\"C\": 1}, \"50\": {\"C\": 1}, \"51\": {\"C\": 1}, \"52\": {\"C\": 1}, \"53\": {\"C\": 1}, \"54\": {\"C\": 1}, \"55\": {\"C\": 1}, \"56\": {\"N\": 1}, \"57\": {\"N\": 1}, \"58\": {\"N\": 1}, \"59\": {\"N\": 1}, \"60\": {\"Cl\": 1}, \"61\": {\"Cl\": 1}, \"62\": {\"Cl\": 1}, \"63\": {\"Cl\": 1}, \"64\": {\"O\": 1}, \"65\": {\"O\": 1}, \"66\": {\"O\": 1}, \"67\": {\"O\": 1}, \"68\": {\"O\": 1}, \"69\": {\"O\": 1}, \"70\": {\"O\": 1}, \"71\": {\"O\": 1}, \"72\": {\"O\": 1}, \"73\": {\"O\": 1}, \"74\": {\"O\": 1}, \"75\": {\"O\": 1}, \"76\": {\"O\": 1}, \"77\": {\"O\": 1}, \"78\": {\"O\": 1}, \"79\": {\"O\": 1}, \"80\": {\"O\": 1}, \"81\": {\"O\": 1}, \"82\": {\"O\": 1}, \"83\": {\"O\": 1}}" energy=-452.7090148925781 free_energy=-452.7090148925781 stress="-0.0059149484150111675 -9.107120422413573e-05 0.0006491795647889376 -9.107120422413573e-05 -0.010216883383691311 0.00022180337691679597 0.0006491795647889376 0.00022180337691679597 -0.009894114919006824" pbc="T T T"
Cd       0.65737662       6.45485904      14.24585801        0      -0.03700460       0.17584473      -0.19656622
Cd       5.53676698       4.22346299       6.19670248        1      -0.03318628      -0.16439137      -0.18617308
Cd       3.32328346       0.66376629       1.85082663        2       0.04754100      -0.16560549       0.17183341
Cd      -1.55489308       2.89584192       9.90148387        3       0.01726878       0.17160553       0.16958290
P        4.08084812       6.69370393      13.79552562        4      -0.03023371       0.13541776      -0.07368855
P        2.09069556       3.98463148       5.74189428        5      -0.07811688      -0.06295621       0.05507083
P       -0.09833808       0.42410294       2.30112245        6      -0.01982883      -0.07309693       0.12783551
P        1.89142504       3.13506530      10.35176652        7       0.01308588       0.13189793       0.06216410
H        2.97289056       1.62470578      15.53405474        8      -0.01382880      -0.11960691      -0.00757344
H        0.98023977       1.93518799       7.48378579        9       0.04038956       0.10837808      -0.01832540
H        1.00393520       5.49580411       0.55694040       10       0.00862220       0.10497956       0.01244539
H        2.99581215       5.18609896       8.60855795       11      -0.01942693      -0.11318637       0.01484403
H       -2.31214368       1.38247004      15.96677735       12       0.06990536      -0.01734535      -0.07026616
H        2.57015042       2.17834059       7.91978231       13      -0.00479516      -0.03092552      -0.13342008
H        6.28898088       5.74091143       0.12571556       14      -0.04739799      -0.01645999       0.10470803
H        1.40693869       4.94440158       8.17594980       15      -0.03610122      -0.01471601       0.10556564
H        0.53649661       3.57719264      14.22438514       16      -0.03276029      -0.04570080      -0.03453819
H        5.41411332       7.10800521       6.17237367       17      -0.02983166       0.04428539      -0.03021486
H        3.44018617       3.54916175       1.86944165       18       0.03084356       0.08948392      -0.00904887
H       -1.44042645       0.01142002       9.92011007       19       0.03556153       0.03608476       0.10934319
H        1.25310827       3.70718020      12.83113175       20       0.00977192       0.03471981       0.06706572
H       -0.73968881       6.97379217       4.78098547       21       0.02673761      -0.02133927       0.05695949
H        2.72428506       3.41443581       3.26501246       22       0.02631215      -0.03792442      -0.11565043
H        4.71597290       0.14963030      11.31171727       23      -0.00227963       0.04625905      -0.05258143
H        1.23514974       1.23275905      12.12056111       24      -0.08041535       0.01068836       0.07294235
H        6.11642376       2.32852255       4.07585480       25      -0.12279157       0.06589179       0.06839184
H        2.74563168       5.88864553       3.97355267       26       0.07585015       0.00943045      -0.09100214
H       -2.13795473       4.79350493      12.02122512       27       0.09131072      -0.01744875      -0.08086988
H       -0.07182429       0.47332385      11.63224236       28      -0.03542697      -0.02693276       0.03356984
H        4.80922533       3.08747359       3.58419295       29      -0.06804186       0.03097128       0.01021147
H        4.05008314       6.65138426       4.46056672       30       0.01365315       0.03888763      -0.06027193
H       -0.83107232       4.03446922      12.50994440       31       0.03558288      -0.03665145      -0.04116632
H       -1.66447979       1.71275654      13.57117892       32      -0.01380408      -0.07161137      -0.14413813
H        3.21677613       1.84692786       5.52230991       33      -0.00808562       0.07574715      -0.14541125
H        5.64236069       5.40678961       2.52399793       34       0.03369368       0.07758950       0.14227623
H        0.76107349       5.27525814      10.57359359       35       0.05191160      -0.08785119       0.14015733