74
Lattice="9.58853706 0.0 0.0 4.491465554417159 8.47151605833661 0.0 3.146421077182514 1.8930899218736108 10.311941648342481" Properties=species:S:1:pos:R:3:spacegroup_kinds:I:1:forces:R:3 spacegroup="P 1" unit_cell=conventional occupancy="_JSON {\"0\": {\"Zn\": 1}, \"1\": {\"Zn\": 1}, \"2\": {\"H\": 1}, \"3\": {\"H\": 1}, \"4\": {\"H\": 1}, \"5\": {\"H\": 1}, \"6\": {\"H\": 1}, \"7\": {\"H\": 1}, \"8\": {\"H\": 1}, \"9\": {\"H\": 1}, \"10\": {\"H\": 1}, \"11\": {\"H\": 1}, \"12\": {\"H\": 1}, \"13\": {\"H\": 1}, \"14\": {\"H\": 1}, \"15\": {\"H\": 1}, \"16\": {\"H\": 1}, \"17\": {\"H\": 1}, \"18\": {\"H\": 1}, \"19\": {\"H\": 1}, \"20\": {\"H\": 1}, \"21\": {\"H\": 1}, \"22\": {\"H\": 1}, \"23\": {\"H\": 1}, \"24\": {\"H\": 1}, \"25\": {\"H\": 1}, \"26\": {\"H\": 1}, \"27\": {\"H\": 1}, \"28\": {\"H\": 1}, \"29\": {\"H\": 1}, \"30\": {\"C\": 1}, \"31\": {\"C\": 1}, \"32\": {\"C\": 1}, \"33\": {\"C\": 1}, \"34\": {\"C\": 1}, \"35\": {\"C\": 1}, \"36\": {\"C\": 1}, \"37\": {\"C\": 1}, \"38\": {\"C\": 1}, \"39\": {\"C\": 1}, \"40\": {\"C\": 1}, \"41\": {\"C\": 1}, \"42\": {\"C\": 1}, \"43\": {\"C\": 1}, \"44\": {\"C\": 1}, \"45\": {\"C\": 1}, \"46\": {\"C\": 1}, \"47\": {\"C\": 1}, \"48\": {\"C\": 1}, \"49\": {\"C\": 1}, \"50\": {\"C\": 1}, \"51\": {\"C\": 1}, \"52\": {\"C\": 1}, \"53\": {\"C\": 1}, \"54\": {\"C\": 1}, \"55\": {\"C\": 1}, \"56\": {\"C\": 1}, \"57\": {\"C\": 1}, \"58\": {\"S\": 1}, \"59\": {\"S\": 1}, \"60\": {\"S\": 1}, \"61\": {\"S\": 1}, \"62\": {\"N\": 1}, \"63\": {\"N\": 1}, \"64\": {\"N\": 1}, \"65\": {\"N\": 1}, \"66\": {\"O\": 1}, \"67\": {\"O\": 1}, \"68\": {\"O\": 1}, \"69\": {\"O\": 1}, \"70\": {\"O\": 1}, \"71\": {\"O\": 1}, \"72\": {\"O\": 1}, \"73\": {\"O\": 1}}" energy=-470.7926940917969 free_energy=-470.7926940917969 stress="-0.00494930986315012 -0.0017316952580586076 -0.0006613438599742949 -0.0017316952580586076 -0.007081527728587389 -0.0009739134111441672 -0.0006613438599742949 -0.0009739134111441672 -0.0005476151127368212" pbc="T T T"
Zn       9.45671272       6.21574137       6.72733937        0       0.09132747      -0.02866778       0.03387657
Zn       8.34442384       4.50709133       1.56964706        1       0.02273373       0.05834019      -0.05956866
H       10.99328077       8.14092124       8.38303816        2       0.03770988      -0.08182503       0.01411954
H       10.75865631       4.93171739       3.22768411        3       0.20557174       0.62361634      -0.23909745
H       10.55817122       9.68626769      10.25557919        4       0.53792804       0.49608406       0.25880450
H       11.95723150       3.78846346       5.09668410        5       0.47903615       0.39107180       0.08818956
H       16.01728806       8.34708316      10.28464999        6       0.60392052       0.06289838      -0.25676224
H       13.26061355       9.29444402       5.14199160        7       0.69299603       0.91943765      -0.53711361
H        7.06785381       6.80883998       8.42901610        8      -0.15665740      -0.18279393      -0.20262921
H        7.74850699       2.11993419       3.25516141        9      -0.29421133      -0.11633922      -0.16453689
H        7.06241741       5.76657200       5.07363679       10       0.15512110       0.38767177      -0.35006335
H        9.97580531       4.49694101      10.20460509       11      -0.00721380       0.02915227      -0.02913374
H        5.82975648       6.88971938       3.22945004       12       0.20892340       0.12740500      -0.11666108
H       10.37521746       2.91800416       8.37297199       13       0.16898996      -0.06257582      -0.16489756
H        4.49739966       1.38035263       3.18611483       14       0.59457421       1.04213834      -0.39870787
H        4.92717888       4.23450023       8.34106287       15       0.18355355       0.09895232      -0.02780636
H       10.06701523       8.58804987       5.04319892       16       0.26377079       0.16096184       0.03815851
H       13.90381510       5.76398205      10.20370649       17       0.44347543       0.64664960       0.33732376
H       14.08427406       7.01917724       5.16473215       18      -0.11416806      -0.11281544       0.12086128
H       11.24924672       8.15309452       0.01362360       19       0.11677234      -0.08550633      -0.01263373
H        4.13230575       5.35786544       5.76566001       20       0.06723268      -0.39848131      -0.09954546
H        5.11947826       0.15269589       0.59598679       21       0.43012303      -0.19704586       0.18602893
H       14.23874267       6.61366094       6.87972052       22      -0.15278956       0.03669725      -0.08264495
H       10.96701090       8.46635905       1.72330473       23       0.28511533       0.37848747       0.37931690
H        7.30792132       2.49292586       8.64572007       24       0.07694642      -0.00295504       0.11702913
H        4.09829605       4.30324192       3.48854748       25       0.07447529       0.06271721       0.08181605
H        8.02523074       1.93139729       7.11332137       26       0.05555110       0.06487444      -0.03202630
H        3.92514488       5.17518860       1.95007829       27      -0.07903545       0.21576132      -0.04682494
H        6.27985951       2.33991745       7.22334591       28       0.16498777       0.05663174      -0.06740464
H        3.46665038       3.45285710       2.08196434       29       0.18413562       0.14855228      -0.02693347
C       10.00191994       8.22479735       8.82871545       30      -0.00748795       0.13798660       0.02682179
C       10.36894185       4.03752743       3.67105558       31       0.04909405      -0.26426673       0.20767471
C        9.74796562       9.13173236       9.84642275       32      -0.43550479      -0.38155970      -0.31678775
C       11.05172677       3.39312304       4.68944970       33      -0.22094148      -0.45669758      -0.08381790
C        5.30726817       7.33458328       0.05182910       34      -0.00382808       0.20044719       0.37969381
C       10.52691391       2.21434361       5.20850010       35      -0.16426632      -0.60967690       0.48007393
C        7.45544452       8.38807148       9.85726174       36      -0.43351436      -0.59468722      -0.43081683
C        9.31397937       1.71216982       4.68710691       37      -0.57485187      -0.59066761       0.40850914
C        7.79703459       7.50352852       8.82403719       38       0.03317025       0.47325805       0.79604340
C        8.69977358       2.42258118       3.66828831       39       0.34331545       0.51044512       0.19207405
C        7.45334324       6.68883383       4.60043038       40      -0.13040257      -0.42235464       0.71056169
C       10.96588016       4.40480340       9.75603642       41      -0.08077356       0.06872017       0.17358321
C        6.76060521       7.33305421       3.58513674       42       0.07171080      -0.16300869       0.36794588
C       11.21460422       3.50285317       8.73922099       43      -0.36947805      -0.07769650       0.21917534
C        7.29060249       8.52519976       3.07374520       44      -0.14220569      -0.24095568       0.16018575
C       12.50939310       3.41184175       8.23795139       45       0.04894993      -0.55299890      -0.70986557
C        8.49859321       9.01794545       3.60996396       46      -0.52740031      -1.48149657       0.38000718
C       13.50945100       4.24790948       8.74567958       47      -0.29713911       0.09416356       0.20762399
C        9.11905523       8.28410747       4.61372015       48       0.00681978       0.34079224       0.00347117
C       13.16726287       5.12883120       9.76205034       49      -0.14045063      -0.68273491      -0.37873137
C       12.19395580       6.82743593       6.20521428       50       1.59645247       1.13542724      -0.32653272
C       10.21725343       6.63169694       1.10319831       51      -0.15608031      -0.92281258      -0.56472003
C       13.63931096       6.41789151       5.97290933       52       0.18412149       0.47341746       0.04165710
C       10.52947290       8.04151157       0.82814737       53      -0.51972312       1.30600989      -0.44239795
C        7.57934461       4.11272689       7.25745830       54       2.27699709      -2.02337646      -0.29119942
C        5.58438286       3.82161158       2.07338987       55       2.11654973       0.58537996      -0.17565738
C        7.29593105       2.61244598       7.55487298       56      -0.18010204       0.72994846      -0.12001663
C        4.19577279       4.22311872       2.39693276       57      -0.86497855      -0.22535367       0.00479157
S        4.82378310       8.46077596       1.33967416       58      -0.69326127      -0.50906390      -0.16261716
S       11.27691296       1.25357875       6.52888821       59      -0.68066263      -0.08793122      -0.45751694
S        2.02513415       0.97418479       1.81153530       60       0.67306912       0.87784326      -0.22675246
S        3.39626572       2.26123534       6.95280300       61       0.55728269       0.49064434       0.26035625
N        9.04767677       7.42507460       8.31619700       62      -0.16999002       0.00359902      -0.08633775
N        9.21493423       3.58557283       3.16219368       63      -0.26780945      -0.71811408       0.06994632
N        8.60499090       7.15786805       5.14852098       64      -0.55809009      -0.12728722      -0.66060531
N       11.92329029       5.19296928      10.27634602       65      -0.04784894       0.28578928       0.20221847
O       11.39676026       5.91678641       6.50775235       66      -1.51647198      -1.98136818       0.51665491
O        8.98314295       6.36811845       1.35252930       67      -0.35293218      -0.26970160       0.24767104
O       11.87777587       8.03384426       6.12629474       68      -0.01468149       0.99825031      -0.14241286
O       11.12743206       5.77207647       1.02708367       69       0.31051815      -0.29882893       0.21956584
O        8.83860567       4.37299047       6.93803339       70      -1.24226272      -0.19987236       0.33928761
O        6.42074541       4.81996808       1.77204745       71      -1.22461605      -1.22564352       0.33037001
O        6.67853767       4.93071645       7.35281710       72      -1.29755807       1.32252133       0.06821619
O        5.95252764       2.62089860       2.16044299       73      -0.29363421       0.33441669      -0.17792730
74
Lattice="9.58853706 0.0 0.0 4.491465554417159 8.47151605833661 0.0 3.146421077182514 1.8930899218736108 10.311941648342481" Properties=species:S:1:pos:R:3:spacegroup_kinds:I:1:forces:R:3 spacegroup="P 1" unit_cell=conventional occupancy="_JSON {\"0\": {\"Zn\": 1}, \"1\": {\"Zn\": 1}, \"2\": {\"H\": 1}, \"3\": {\"H\": 1}, \"4\": {\"H\": 1}, \"5\": {\"H\": 1}, \"6\": {\"H\": 1}, \"7\": {\"H\": 1}, \"8\": {\"H\": 1}, \"9\": {\"H\": 1}, \"10\": {\"H\": 1}, \"11\": {\"H\": 1}, \"12\": {\"H\": 1}, \"13\": {\"H\": 1}, \"14\": {\"H\": 1}, \"15\": {\"H\": 1}, \"16\": {\"H\": 1}, \"17\": {\"H\": 1}, \"18\": {\"H\": 1}, \"19\": {\"H\": 1}, \"20\": {\"H\": 1}, \"21\": {\"H\": 1}, \"22\": {\"H\": 1}, \"23\": {\"H\": 1}, \"24\": {\"H\": 1}, \"25\": {\"H\": 1}, \"26\": {\"H\": 1}, \"27\": {\"H\": 1}, \"28\": {\"H\": 1}, \"29\": {\"H\": 1}, \"30\": {\"C\": 1}, \"31\": {\"C\": 1}, \"32\": {\"C\": 1}, \"33\": {\"C\": 1}, \"34\": {\"C\": 1}, \"35\": {\"C\": 1}, \"36\": {\"C\": 1}, \"37\": {\"C\": 1}, \"38\": {\"C\": 1}, \"39\": {\"C\": 1}, \"40\": {\"C\": 1}, \"41\": {\"C\": 1}, \"42\": {\"C\": 1}, \"43\": {\"C\": 1}, \"44\": {\"C\": 1}, \"45\": {\"C\": 1}, \"46\": {\"C\": 1}, \"47\": {\"C\": 1}, \"48\": {\"C\": 1}, \"49\": {\"C\": 1}, \"50\": {\"C\": 1}, \"51\": {\"C\": 1}, \"52\": {\"C\": 1}, \"53\": {\"C\": 1}, \"54\": {\"C\": 1}, \"55\": {\"C\": 1}, \"56\": {\"C\": 1}, \"57\": {\"C\": 1}, \"58\": {\"S\": 1}, \"59\": {\"S\": 1}, \"60\": {\"S\": 1}, \"61\": {\"S\": 1}, \"62\": {\"N\": 1}, \"63\": {\"N\": 1}, \"64\": {\"N\": 1}, \"65\": {\"N\": 1}, \"66\": {\"O\": 1}, \"67\": {\"O\": 1}, \"68\": {\"O\": 1}, \"69\": {\"O\": 1}, \"70\": {\"O\": 1}, \"71\": {\"O\": 1}, \"72\": {\"O\": 1}, \"73\": {\"O\": 1}}" energy=-469.3669738769531 free_energy=-469.3669738769531 stress="-0.007352359592914581 0.0007000802434049547 -0.004733859561383724 0.0007000802434049547 -0.02232726663351059 -0.0005005897837691009 -0.004733859561383724 -0.0005005897837691009 -0.002905783709138632" pbc="T T T"
Zn       9.47824099       6.20954315       6.70709379        0       0.27957454       0.07495967       0.13445392
Zn       8.37242991       4.53571418       1.57852849        1      -0.05655875       0.15144555      -0.14931485
H       11.02242519       8.16955116       8.35767587        2       0.00645709      -0.09247153       0.02219235
H       10.78586218       4.90186302       3.19821456        3       0.62590617       1.23703170      -0.44875664
H       10.58591410       9.68472582      10.22607347        4       0.86876428       0.79313052       0.46560887
H       11.98491697       3.76429666       5.06680092        5       0.85654140       0.55326211       0.25436848
H       16.01104391       8.35546767      10.29468477        6       1.44690466       0.17956154      -0.45583391
H       13.23079086       9.32362477       5.17186952        7       1.19558191       1.22741842      -0.68908644
H        7.09244796       6.83399071       8.45444960        8      -0.34321246      -0.38014957      -0.39635351
H        7.77119001       2.14773585       3.27263210        9      -0.09047160      -0.07562728       0.01676036
H        7.08255866       5.79205143       5.10136981       10       0.28822339       0.70827782      -0.63668579
H       10.00423537       4.52369735      10.18445551       11      -0.38232261       0.12083769       0.27365619
H        5.81135746       6.91680194       3.25789751       12       1.16618252       0.48232573       0.20560910
H       10.36388800       2.94728052       8.40060946       13       0.59899122       0.13291012      -0.14973500
H        4.52507698       1.35337627       3.15627641       14       1.26435113       2.03330016      -0.84182817
H        4.93628841       4.25564139       8.31329287       15       0.61849427       0.10342230      -0.11497682
H       10.09616271       8.58607531       5.01338293       16       0.21210916       0.23004958      -0.03594787
H       13.93262750       5.75646263      10.17505692       17       0.73070693       0.93135583       0.54165882
H       14.09419413       6.99017662       5.13589663       18      -0.10502321      -0.34844938       0.39271510
H       11.27762445       8.12831041      -0.00628463       19       0.16842927      -0.09592572      -0.04597631
H        4.10356578       5.35176642       5.78991276       20       0.19915329      -1.04774094      -0.28108007
H        5.11044113       0.12439202       0.57714305       21       1.07092988      -0.49694175       0.17388609
H       14.25026627       6.58932399       6.85084426       22       0.49999937       0.30436015       0.84757721
H       10.94769584       8.43637987       1.69582920       23       0.67123747       0.84676260       0.83961260
H        7.28735584       2.46707557       8.61693099       24       0.27932173      -0.12840019       0.62140614
H        4.07999231       4.27357694       3.46220172       25       0.30950525       0.21620303       0.01495109
H        8.03376930       1.90918264       7.08883777       26       0.28276408      -0.00375891      -0.11881197
H        3.95184297       5.14521831       1.92080584       27      -0.03739700       0.23443384      -0.03420822
H        6.27300083       2.32713850       7.22846382       28       0.78015351       0.13786583      -0.08720856
H        3.43790396       3.45530540       2.11138878       29       0.51556265       0.00633416      -0.34707320
C       10.02993582       8.25071026       8.80350982       30      -0.04278219      -0.02974280      -0.12760383
C       10.39875590       4.03675768       3.65583452       31       0.09198120      -0.71924198       0.60033625
C        9.77552587       9.15280476       9.81862744       32      -0.80385697      -0.57319880      -0.32785171
C       11.07918222       3.37687662       4.68261833       33      -0.15781446       0.87075144      -1.05089462
C        5.33695939       7.34945827       0.03894148       34       0.22857405       0.64466411       0.69636798
C       10.55642871       2.24177525       5.20602483       35      -0.53111941      -1.80971360       1.04001331
C        7.48434780       8.41750500       9.87018826       36      -1.29246473      -1.40025735      -1.02600586
C        9.34347990       1.72931826       4.70470640       37      -1.45380402      -0.61194456       0.19322640
C        7.82476982       7.52977352       8.81434651       38       0.43668276       0.82341939       1.21068025
C        8.72832936       2.44940027       3.69258769       39      -0.01830953       0.51267773      -0.29571831
C        7.48287895       6.71484627       4.60037382       40      -0.05086333      -0.97255069       1.78094006
C       10.99428509       4.43201731       9.77168825       41       0.31107047      -0.25179309      -0.61409360
C        6.78622486       7.36003221       3.61256296       42      -1.04504132       0.07020432      -0.84357417
C       11.23428704       3.52973082       8.73977848       43      -0.26327890      -0.17828710       0.19038559
C        7.31943455       8.55038337       3.06201044       44      -0.22024651      -0.48920676       0.63101196
C       12.53643973       3.44083580       8.21852922       45      -0.55087763      -0.98453474      -0.75488281
C        8.52846230       9.04745269       3.61638127       46      -1.78435850      -2.38289952      -0.10172418
C       13.53839846       4.26542628       8.73056794       47      -0.82028234      -0.14494501       0.04438443
C        9.13723603       8.29878344       4.58975469       48       0.80051887       0.13026378       1.08288109
C       13.19385501       5.13544944       9.74391617       49      -0.47898218      -0.44226995      -0.08693981
C       12.22100133       6.83801567       6.18832397       50       2.51140499      -0.83160567      -0.13120922
C       10.24695942       6.65805693       1.12984813       51      -0.66651994      -1.76164567      -1.07764494
C       13.66743378       6.39918277       5.97576755       52      -0.54158068       1.11277223      -1.10418034
C       10.55555923       8.01273193       0.80010759       53      -1.31016493       2.86052346      -0.86486793
C        7.55219836       4.11648830       7.28183128       54       6.48762608      -4.15744877      -1.36420882
C        5.61215383       3.79465386       2.08382448       55       1.49105680       3.59292603      -0.76431912
C        7.32369980       2.58750097       7.54157437       56      -1.36331081       1.20363355      -0.37106270
C        4.22488750       4.19521014       2.36981464       57      -1.59406614       0.19955824       0.46953464
S        4.85372999       8.48837451       1.32647330       58      -0.71473485      -0.63728476      -0.20305933
S       11.30281526       1.27658968       6.50156710       59      -0.74472666      -0.35069615      -0.20083924
S        2.05453365       0.98430081       1.78654322       60       0.88254505       0.90323091      -0.06102571
S        3.42514984       2.24080994       6.92386113       61       0.62440807       1.00860238       0.65888906
N        9.07732503       7.44361841       8.29206063       62      -0.59028488       0.14286351       0.19344185
N        9.24168844       3.61396007       3.14865931       63      -0.37266910      -1.39438081       0.61401159
N        8.63268071       7.18750419       5.16745382       64      -0.84530032      -0.09250785      -1.38231432
N       11.95233236       5.22242907      10.27453755       65       0.23252770       0.18174621       0.15944095
O       11.42543110       5.93625667       6.49015985       66      -2.07104278      -2.76352167       0.73377132
O        9.01203657       6.39604063       1.34473409       67      -0.80420029      -0.41431317       0.56494761
O       11.90555574       8.00546305       6.09976243       68      -0.50364184       3.77557278      -0.44760484
O       11.14554423       5.80108491       1.05451955       69       0.98578930      -1.02599669       0.39708969
O        8.86722335       4.40093979       6.92146755       70      -2.74888802      -0.84537858       0.85409760
O        6.45034376       4.84816604       1.75761826       71      -1.67515075      -2.28022099       0.64514774
O        6.68678093       4.90233319       7.37341761       72      -3.88457179       3.56508732       0.48555562
O        5.94831054       2.63343899       2.18983772       73       0.93989038      -2.08869553      -0.01610828
74
Lattice="9.58853706 0.0 0.0 4.491465554417159 8.47151605833661 0.0 3.146421077182514 1.8930899218736108 10.311941648342481" Properties=species:S:1:pos:R:3:spacegroup_kinds:I:1:forces:R:3 spacegroup="P 1" unit_cell=conventional occupancy="_JSON {\"0\": {\"Zn\": 1}, \"1\": {\"Zn\": 1}, \"2\": {\"H\": 1}, \"3\": {\"H\": 1}, \"4\": {\"H\": 1}, \"5\": {\"H\": 1}, \"6\": {\"H\": 1}, \"7\": {\"H\": 1}, \"8\": {\"H\": 1}, \"9\": {\"H\": 1}, \"10\": {\"H\": 1}, \"11\": {\"H\": 1}, \"12\": {\"H\": 1}, \"13\": {\"H\": 1}, \"14\": {\"H\": 1}, \"15\": {\"H\": 1}, \"16\": {\"H\": 1}, \"17\": {\"H\": 1}, \"18\": {\"H\": 1}, \"19\": {\"H\": 1}, \"20\": {\"H\": 1}, \"21\": {\"H\": 1}, \"22\": {\"H\": 1}, \"23\": {\"H\": 1}, \"24\": {\"H\": 1}, \"25\": {\"H\": 1}, \"26\": {\"H\": 1}, \"27\": {\"H\": 1}, \"28\": {\"H\": 1}, \"29\": {\"H\": 1}, \"30\": {\"C\": 1}, \"31\": {\"C\": 1}, \"32\": {\"C\": 1}, \"33\": {\"C\": 1}, \"34\": {\"C\": 1}, \"35\": {\"C\": 1}, \"36\": {\"C\": 1}, \"37\": {\"C\": 1}, \"38\": {\"C\": 1}, \"39\": {\"C\": 1}, \"40\": {\"C\": 1}, \"41\": {\"C\": 1}, \"42\": {\"C\": 1}, \"43\": {\"C\": 1}, \"44\": {\"C\": 1}, \"45\": {\"C\": 1}, \"46\": {\"C\": 1}, \"47\": {\"C\": 1}, \"48\": {\"C\": 1}, \"49\": {\"C\": 1}, \"50\": {\"C\": 1}, \"51\": {\"C\": 1}, \"52\": {\"C\": 1}, \"53\": {\"C\": 1}, \"54\": {\"C\": 1}, \"55\": {\"C\": 1}, \"56\": {\"C\": 1}, \"57\": {\"C\": 1}, \"58\": {\"S\": 1}, \"59\": {\"S\": 1}, \"60\": {\"S\": 1}, \"61\": {\"S\": 1}, \"62\": {\"N\": 1}, \"63\": {\"N\": 1}, \"64\": {\"N\": 1}, \"65\": {\"N\": 1}, \"66\": {\"O\": 1}, \"67\": {\"O\": 1}, \"68\": {\"O\": 1}, \"69\": {\"O\": 1}, \"70\": {\"O\": 1}, \"71\": {\"O\": 1}, \"72\": {\"O\": 1}, \"73\": {\"O\": 1}}" energy=-467.79364013671875 free_energy=-467.79364013671875 stress="-0.009250723756849766 -0.0004940538783557713 -0.010875364765524864 -0.0004940538783557713 -0.032840777188539505 -0.0019742208532989025 -0.010875364765524864 -0.0019742208532989025 -0.0070794615894556046" pbc="T T T"
Zn       9.50261606       6.18146459       6.69467125        0       0.33479565       0.41606221       0.07464990
Zn       8.40089969       4.50878170       1.58107924        1      -0.10754026       0.76939172      -0.32396305
H       11.05170451       8.19741659       8.33144247        2      -0.40470022      -0.06346017       0.33614653
H       10.81344534       4.87243293       3.17008189        3       0.76935601       1.26039660      -0.36344016
H       10.61262223       9.66136883      10.19617916        4       2.25294399       1.87714958       1.37856519
H       11.99321136       3.73574408       5.03774824        5       1.71209097       0.93058354       0.61029208
H       16.01882382       8.37875320      10.32318169        6       2.16516805      -0.05969113      -1.02709675
H       13.20219547       9.35163111       5.20183724        7       1.49335015       1.07754385      -0.87955165
H        7.12213077       6.86087259       8.47618673        8      -1.35758626      -1.54557145      -1.12729430
H        7.80042751       2.17721493       3.27721408        9      -0.83718908      -0.42900729      -0.29009187
H        7.09944551       5.82180310       5.13078013       10       0.16103242       0.19933413      -0.60150707
H       10.03039105       4.53822101      10.19833023       11      -0.15363438       0.07480495       0.09028667
H        5.83444129       6.94510020       3.28770906       12       0.33590516      -0.02303457      -0.23167574
H       10.35482383       2.97476406       8.43020898       13       1.11942625       0.28623801      -0.17213064
H        4.54992952       1.32598269       3.13080623       14       1.31663036       2.09453583      -0.84065706
H        4.95919156       4.26630105       8.29993479       15       0.77128702       0.04258992      -0.14129803
H       10.12526414       8.56930234       4.98640282       16       0.06169063       0.16796198      -0.11845593
H       13.96191029       5.73110665      10.16744729       17       0.71802062       0.82270378       0.41881672
H       14.12295878       6.96281455       5.10623888       18      -0.20027076      -0.45867127       0.56569439
H       11.30572604       8.12091385      -0.03341866       19      -0.38112754      -0.13471918       0.71517217
H        4.09273199       5.33517559       5.81925389       20       0.36359596      -0.79212463      -0.36032134
H        5.13425533       0.10241235       0.59513352       21       0.97370017      -0.36285043       0.07052898
H       14.27788306       6.57018522       6.82191810       22       0.80688763       0.55756545       1.44540417
H       10.94352172       8.41314303       1.67052690       23       1.53121042       1.72560740       2.49659014
H        7.27290962       2.44179525       8.60392527       24       0.37350160      -0.24902706       1.78864527
H        4.10722659       4.25389227       3.44327867       25       0.42205754       0.48772857       0.32733434
H        8.04954744       1.90468502       7.08796050       26       0.10582756       0.25823313       0.08493374
H        3.97979663       5.13415088       1.89158961       27      -0.14023522       0.83847868      -0.16746098
H        6.29478191       2.31656481       7.25803238       28       0.65342587       0.10295708      -0.23484693
H        3.44729876       3.48205380       2.14134813       29       0.50863773      -0.07255717      -0.55706501
C       10.05755274       8.26646936       8.81558852       30      -0.04593280      -0.45164832      -0.87213576
C       10.42710297       4.00691415       3.62938090       31       0.74334431       0.01498282       0.75899684
C        9.80478107       9.17825781       9.83462505       32      -1.84827042      -2.47807407      -2.04340410
C       11.10802741       3.35603500       4.66366007       33      -1.07316506       0.08103132      -1.38891256
C        5.36679280       7.32179701       0.01900322       34      -0.07019548       1.15396547       1.17231154
C       10.58490319       2.21458544       5.18139382       35      -0.37395722      -1.63737702       1.16238856
C        7.51422288       8.40037135       9.84044727       36      -1.91591549      -1.07103777      -0.34551004
C        9.37226514       1.70185686       4.68856297       37      -2.07758236      -0.25179350      -0.14700004
C        7.85449633       7.51782611       8.78635572       38       1.22133482       1.88477206       1.98413336
C        8.75731990       2.42235715       3.66943843       39       0.93424261       1.62724173       0.01376159
C        7.51233353       6.68637968       4.57514147       40       0.03799480      -0.04814325       1.65364695
C       11.02245643       4.44779437       9.77002499       41       0.23663315       0.06023097      -0.38111767
C        6.81255521       7.33182005       3.58318475       42      -0.07233286       0.65632933      -0.28394434
C       11.26378736       3.54999882       8.73950565       43      -0.64722538      -0.62427413      -0.11162812
C        7.34916381       8.53497262       3.03266686       44      -0.29806840      -1.01033926       0.80583900
C       12.56573600       3.44971901       8.19545175       45      -1.04648614      -1.27209711      -0.73041308
C        8.55824462       9.01830245       3.58898728       46      -1.87826765      -2.17194223      -0.35958311
C       13.56738938       4.25705764       8.71909490       47      -0.83175993      -0.38084906      -0.30242673
C        9.16384603       8.27014181       4.56017706       48       1.32993305       0.75576860       1.00899541
C       13.22209397       5.11484841       9.72178187       49      -0.58423507       0.56721199       0.83060515
C       12.25004536       6.80884460       6.15870336       50       2.31497598      -0.57613409       0.30623373
C       10.27655647       6.68422021       1.12776012       51      -1.32578468      -3.01741934      -0.68398565
C       13.68939277       6.39728474       5.96951615       52      -0.59933704       0.25560117      -2.02559614
C       10.58152530       8.00191547       0.81269958       53      -1.16861224       3.63375759      -3.56191111
C        7.52406082       4.08652083       7.30860044       54       7.00788116      -2.56450319      -1.80343676
C        5.63794359       3.76603487       2.05635409       55       0.04517657       7.88703442      -0.82761800
C        7.34279154       2.58591706       7.56465297       56      -1.35770798       0.73113990      -1.55609643
C        4.25420605       4.21525223       2.35881310       57      -1.41602397      -0.77033269       0.29158804
S        4.87968336       8.45863820       1.29673119       58      -0.79968482      -0.50281763       0.01288371
S       11.29935181       1.24698409       6.48936446       59      -0.29011804      -0.01676342      -0.07591579
S        2.08424840       0.95450976       1.75723306       60       0.78103387       1.04252756      -0.10858916
S        3.45097254       2.22643592       6.90165800       61       0.20515251       0.94007617       0.69788831