68
Lattice="6.81293716 0.0 0.0 1.9955007975771462 10.062549907183003 0.0 1.9954455714115176 0.25606045573550335 10.059359484735596" Properties=species:S:1:pos:R:3:spacegroup_kinds:I:1:forces:R:3 spacegroup="P 1" unit_cell=conventional occupancy="_JSON {\"0\": {\"Zn\": 1}, \"1\": {\"Zn\": 1}, \"2\": {\"H\": 1}, \"3\": {\"H\": 1}, \"4\": {\"H\": 1}, \"5\": {\"H\": 1}, \"6\": {\"H\": 1}, \"7\": {\"H\": 1}, \"8\": {\"H\": 1}, \"9\": {\"H\": 1}, \"10\": {\"H\": 1}, \"11\": {\"H\": 1}, \"12\": {\"H\": 1}, \"13\": {\"H\": 1}, \"14\": {\"H\": 1}, \"15\": {\"H\": 1}, \"16\": {\"H\": 1}, \"17\": {\"H\": 1}, \"18\": {\"H\": 1}, \"19\": {\"H\": 1}, \"20\": {\"H\": 1}, \"21\": {\"H\": 1}, \"22\": {\"H\": 1}, \"23\": {\"H\": 1}, \"24\": {\"H\": 1}, \"25\": {\"H\": 1}, \"26\": {\"C\": 1}, \"27\": {\"C\": 1}, \"28\": {\"C\": 1}, \"29\": {\"C\": 1}, \"30\": {\"C\": 1}, \"31\": {\"C\": 1}, \"32\": {\"C\": 1}, \"33\": {\"C\": 1}, \"34\": {\"C\": 1}, \"35\": {\"C\": 1}, \"36\": {\"C\": 1}, \"37\": {\"C\": 1}, \"38\": {\"C\": 1}, \"39\": {\"C\": 1}, \"40\": {\"C\": 1}, \"41\": {\"C\": 1}, \"42\": {\"C\": 1}, \"43\": {\"C\": 1}, \"44\": {\"C\": 1}, \"45\": {\"C\": 1}, \"46\": {\"C\": 1}, \"47\": {\"C\": 1}, \"48\": {\"C\": 1}, \"49\": {\"C\": 1}, \"50\": {\"S\": 1}, \"51\": {\"S\": 1}, \"52\": {\"N\": 1}, \"53\": {\"N\": 1}, \"54\": {\"N\": 1}, \"55\": {\"N\": 1}, \"56\": {\"O\": 1}, \"57\": {\"O\": 1}, \"58\": {\"O\": 1}, \"59\": {\"O\": 1}, \"60\": {\"O\": 1}, \"61\": {\"O\": 1}, \"62\": {\"O\": 1}, \"63\": {\"O\": 1}, \"64\": {\"O\": 1}, \"65\": {\"O\": 1}, \"66\": {\"O\": 1}, \"67\": {\"O\": 1}}" energy=-442.68927001953125 free_energy=-442.68927001953125 stress="-0.008934068493545055 -0.0005560365389101207 -3.948355879401788e-05 -0.0005560365389101207 -0.010887427255511284 -0.000971832952927798 -3.948355879401788e-05 -0.000971832952927798 -0.009798957966268063" pbc="T T T"
Zn       3.68708266       2.20916450       8.11414420        0      -0.02196964      -0.14198667      -0.15438586
Zn       7.08491046       8.16739352       2.00093306        1       0.00240810       0.08640081      -0.21795788
H        3.10743847       0.42248650       5.53985307        2       0.01762040      -0.03856418      -0.04878586
H        4.23569442       4.82801322       9.83272694        3       0.00281227       0.00096015       0.06936622
H        7.65900727       9.95414423       4.57307999        4      -0.06052438      -0.05856133       0.11837408
H        6.51484529       5.54210111       0.28126989        5      -0.00106438       0.00933496      -0.24683945
H        2.82774931       0.86973724       3.08327578        6       0.02684002       0.00937460      -0.00871441
H        4.53553522       7.25750900       9.32600294        7      -0.09852163       0.09427822       0.02260339
H        7.92023398       9.50656295       7.01289809        8      -0.01785577      -0.01453713       0.07936272
H        6.23849238       3.09258017       0.78711435        9       0.07759863       0.27478421       0.22601770
H        3.04215566       3.21360231       2.25041796       10       0.03483820       0.04124125      -0.04837775
H        4.30498533       8.03873570       6.94632923       11       0.01843547       0.09568015       0.03295274
H        7.71369361       7.15289383       7.86035016       12       0.00369927      -0.01037236       0.13329028
H        6.44398210       2.32796360       3.16620908       13      -0.01374264      -0.20460905      -0.00537590
H        3.43867499       5.70264910       2.81589305       14      -0.03563185       0.05553606      -0.24114734
H        3.91995813       7.37983866       4.48462603       15       0.13401936       0.76717889      -0.34499234
H        7.31557209       4.67079999       7.29978355       16       0.04853176      -0.06303978      -0.30405056
H        6.84524657       2.95832741       5.63105420       17      -0.04023015      -0.20431641       0.03563926
H        4.27879522      10.19693104       8.16177536       18      -0.04306345       0.07447993       0.01119418
H        3.06455293       1.90353507       0.07971305       19       0.16194817       0.07581216       0.00012187
H        6.47468189       0.14728482       1.90338075       20       0.12836808      -0.02470158       0.06303868
H        7.68536834       8.42516652       9.94531453       21      -0.02487351      -0.00529063       0.24411339
H        5.66282860       9.71512443       8.80588663       22      -0.35656387       0.43456036      -0.71601945
H        1.70037919       1.29868436       0.57530349       23      -0.08051816       0.09236586      -0.02209660
H        5.13236079       0.62379028       1.27042031       24      -0.47597745       0.45647132      -0.68462068
H        9.05166071       9.06448303       9.43702915       25      -0.16359901      -0.50917900       0.59795749
C        3.18518890       1.43142596       5.13779883       26      -0.07872096      -0.18068814      -0.34916705
C        4.15860769       5.20578763       8.81644001       27       0.00837693       0.01553228      -0.27278087
C        7.56321189       8.94465900       4.97919316       28       0.06906864      -0.12089184      -0.36423016
C        6.59169167       5.17133149       1.29564072       29       0.00073712      -0.40849108      -0.03822541
C        3.03765551       1.69281991       3.76247685       30       0.00469522      -0.05542336       0.39595565
C        4.30038233       6.56781788       8.52045291       31       0.11884257      -0.27215856       0.05468644
C        7.71007452       8.67508416       6.34474827       32       0.03910121       0.35528040      -0.18019243
C        6.44741322       3.80623722       1.59588979       33      -0.15738577      -0.21951260      -0.18398449
C        3.16364966       2.99381976       3.31326272       34      -0.17435113      -0.06169064      -0.05478956
C        4.18577000       6.98606433       7.20629357       35       0.08283618       0.03667949      -0.14584714
C        7.59242443       7.38083475       6.80241433       36      -0.00362449      -0.40089351      -0.21112010
C        6.56004358       3.37726619       2.90814084       37       0.02752129       0.57593995      -0.01187458
C        3.41113397       4.03644903       4.23223212       38       0.14820105      -0.37478662      -0.01877577
C        3.93807596       6.04323423       6.18845554       39      -0.19410001      -0.10772131      -0.28791815
C        7.33517305       6.33930127       5.87644105       40       0.01298666      -0.21059099       0.41192150
C        6.81814577       4.33236361       3.92693377       41       0.05896764      -0.15661289      -0.46121651
C        3.54210340       3.67294058       5.59705198       42       0.01489329       0.01444447      -0.15194222
C        3.79681490       4.68913911       6.58599297       43       0.08655523       0.13011244      -0.37671375
C        7.20419138       6.70233529       4.52028482       44      -0.00896826       0.01947683      -0.37938067
C        6.95065082       5.68823558       3.53143309       45       0.01686598      -0.13573855      -0.48020059
C        3.55796183       5.40106629       3.84947662       46      -0.00637346       0.24165028       0.41227356
C        3.81694900       6.36209396       4.78769215       47      -0.10250910      -0.59430563       0.56959695
C        7.22001957       4.94646417       6.24004707       48      -0.06064571       0.40192750       0.29651737
C        6.96303835       3.98528048       5.30262561       49       0.00236024       0.31574631       0.25798294
S        7.07595383       1.66951929       8.65625433       50      -0.26307085      -0.52970004      -0.52945173
S        3.69004418       8.68745938       1.45510315       51      -0.61879033      -0.48294640      -0.22367871
N        3.44018809       2.39180653       6.02285231       52      -0.04481147       0.29468915      -0.21922147
N        3.91431022       4.29615873       7.86025579       53      -0.01775735       0.21557942       0.66973734
N        7.31647287       7.97741532       4.07962121       54       0.04207242       0.19872509       0.71720207
N        6.85505371       6.08160125       2.22460842       55      -0.04628429      -0.22823106       0.90287530
O        5.27348334      10.23545497       8.01488095       56       0.49243572      -0.53222555       0.77571005
O        2.07262803       2.06055216       0.04685438       57      -0.09435160      -0.16156004       0.26769468
O        5.47952004       0.14136552       2.04215103       58       0.31545392      -0.52655756       0.79939312
O        8.68066129       8.31718917      10.02752725       59       0.34554708       0.42615956      -0.63904595
O        5.93843696       1.92725014       7.72527413       60      -0.56719387       0.22424224      -0.31202585
O        8.21295797       2.54927223       8.37146686       61       1.20217323       1.00709152      -0.44270352
O        4.80750178       8.42293001       2.37506106       62       1.08564985      -0.28725901       0.69730043
O        2.54562708       7.76116705       1.73549225       63      -0.53016335      -0.22544855       0.24822637
O        7.53556847       0.24100633       8.48363915       64       0.20457554      -0.92458934      -0.11056981
O        6.63239674       1.86247789      10.06056552       65      -0.60921240       0.19950581       1.35193729
O        3.21861985      10.09849777       1.61996144       66      -0.26517481       1.12821770      -0.04459769
O        4.12833420       8.45606332       0.03250191       67       0.24058878       0.10372126      -0.93002510
68
Lattice="6.81293716 0.0 0.0 1.9955007975771462 10.062549907183003 0.0 1.9954455714115176 0.25606045573550335 10.059359484735596" Properties=species:S:1:pos:R:3:spacegroup_kinds:I:1:forces:R:3 spacegroup="P 1" unit_cell=conventional occupancy="_JSON {\"0\": {\"Zn\": 1}, \"1\": {\"Zn\": 1}, \"2\": {\"H\": 1}, \"3\": {\"H\": 1}, \"4\": {\"H\": 1}, \"5\": {\"H\": 1}, \"6\": {\"H\": 1}, \"7\": {\"H\": 1}, \"8\": {\"H\": 1}, \"9\": {\"H\": 1}, \"10\": {\"H\": 1}, \"11\": {\"H\": 1}, \"12\": {\"H\": 1}, \"13\": {\"H\": 1}, \"14\": {\"H\": 1}, \"15\": {\"H\": 1}, \"16\": {\"H\": 1}, \"17\": {\"H\": 1}, \"18\": {\"H\": 1}, \"19\": {\"H\": 1}, \"20\": {\"H\": 1}, \"21\": {\"H\": 1}, \"22\": {\"H\": 1}, \"23\": {\"H\": 1}, \"24\": {\"H\": 1}, \"25\": {\"H\": 1}, \"26\": {\"C\": 1}, \"27\": {\"C\": 1}, \"28\": {\"C\": 1}, \"29\": {\"C\": 1}, \"30\": {\"C\": 1}, \"31\": {\"C\": 1}, \"32\": {\"C\": 1}, \"33\": {\"C\": 1}, \"34\": {\"C\": 1}, \"35\": {\"C\": 1}, \"36\": {\"C\": 1}, \"37\": {\"C\": 1}, \"38\": {\"C\": 1}, \"39\": {\"C\": 1}, \"40\": {\"C\": 1}, \"41\": {\"C\": 1}, \"42\": {\"C\": 1}, \"43\": {\"C\": 1}, \"44\": {\"C\": 1}, \"45\": {\"C\": 1}, \"46\": {\"C\": 1}, \"47\": {\"C\": 1}, \"48\": {\"C\": 1}, \"49\": {\"C\": 1}, \"50\": {\"S\": 1}, \"51\": {\"S\": 1}, \"52\": {\"N\": 1}, \"53\": {\"N\": 1}, \"54\": {\"N\": 1}, \"55\": {\"N\": 1}, \"56\": {\"O\": 1}, \"57\": {\"O\": 1}, \"58\": {\"O\": 1}, \"59\": {\"O\": 1}, \"60\": {\"O\": 1}, \"61\": {\"O\": 1}, \"62\": {\"O\": 1}, \"63\": {\"O\": 1}, \"64\": {\"O\": 1}, \"65\": {\"O\": 1}, \"66\": {\"O\": 1}, \"67\": {\"O\": 1}}" energy=-442.27178955078125 free_energy=-442.27178955078125 stress="-0.010273030027747154 -0.000812399317510426 -0.0009370140032842755 -0.000812399317510426 -0.020233189687132835 -0.00046727084554731846 -0.0009370140032842755 -0.00046727084554731846 -0.009498931467533112" pbc="T T T"
Zn       3.65794692       2.23820930       8.14266619        0      -0.09060453      -0.14762729      -0.33316419
Zn       7.05647596       8.19034988       2.02724047        1       0.00288806       0.14255780      -0.41574517
H        3.07804394       0.45243382       5.56499190        2       0.01948099      -0.08387503      -0.01074123
H        4.20882226       4.85331771       9.86204361        3      -0.00707478       0.03159140       0.00257402
H        7.65458898       9.98216841       4.58965925        4      -0.13159667      -0.27530503       0.34185746
H        6.49190989       5.56677582       0.31103623        5      -0.02132365      -0.11714048      -0.39492977
H        2.80667436       0.89861594       3.11001774        6      -0.01530702      -0.12963533      -0.09918328
H        4.50867168       7.26425722       9.35574859        7      -0.07343169       0.21565560       0.08868185
H        7.89882624       9.53071312       7.04070785        8      -0.05743316      -0.27628100      -0.06613523
H        6.21437396       3.11763848       0.81463033        9       0.04090405       0.18042532       0.18736024
H        3.01401610       3.23915035       2.27964009       10       0.05895345      -0.07579256       0.01312484
H        4.27658106       8.03863982       6.97558842       11       0.11543885       0.92692047      -0.12658128
H        7.69367308       7.17956241       7.88833630       12      -0.05424725       0.05918530      -0.36383700
H        6.41724959       2.35712271       3.19493134       13      -0.03373260      -0.28941885       0.00895596
H        3.43435879       5.70981799       2.84487007       14      -0.07079982       0.22568254      -0.47067302
H        3.89083410       7.36603644       4.51114108       15       0.27564657       2.05176735      -0.65566188
H        7.28965421       4.69777853       7.31518600       16       0.07987918      -0.14109778       0.09423125
H        6.81813838       2.98781081       5.65947549       17      -0.04177702      -0.21882047       0.07791699
H        4.25581323      10.19307956       8.13835886       18      -0.24830061       0.14060283       0.16437571
H        3.03874042       1.93246515       0.07682740       19       0.14692491       0.08093910       0.05746133
H        6.44907671       0.16343348       1.90275006       20      -0.03204176      -0.04665325       0.12570849
H        7.65826523       8.45357854       9.93075756       21       0.00149967      -0.08017744       0.45063359
H        5.63391487       9.73873204       8.79782063       22      -0.17923057       0.14566399      -0.20541871
H        1.67722981       1.31798986       0.55660854       23      -0.12266508       0.01399760       0.09325763
H        5.10393132       0.61582928       1.26190763       24      -0.50026917       0.49495059      -0.63673693
H        9.02456167       9.08733050       9.43711811       25      -0.14663243      -0.69682324       0.84690261
C        3.15679292       1.46079971       5.16694917       26      -0.10121321      -0.18283772      -0.52387226
C        4.12954559       5.23485845       8.84519385       27       0.02323214      -0.50816375      -0.27446607
C        7.53547997       8.97021700       5.00855795       28       0.23196255      -0.26309040      -1.33054972
C        6.57157307       5.19433692       1.32363682       29      -0.27718991      -1.04883683      -1.02374029
C        3.01024075       1.72170776       3.78384043       30      -0.01808099      -0.94938171       0.96575564
C        4.27333798       6.58268510       8.54722224       31       0.13759118       0.19405875       0.01736540
C        7.69061688       8.68598398       6.37327521       32       0.01498657       1.57740641      -0.65928000
C        6.41890876       3.82458037       1.62570831       33      -0.07014766       0.00425866      -0.12235678
C        3.13909247       2.99638763       3.34071252       34      -0.05543393       1.62918329      -0.26886880
C        4.15842949       7.01142182       7.23533785       35      -0.02148189      -0.87415946      -0.04095715
C        7.56754170       7.40856437       6.81333697       36       0.09096226      -1.14938974       1.13268077
C        6.53202809       3.40476212       2.93710746       37      -0.03513804       0.21515661      -0.21805882
C        3.38238583       4.06501925       4.25950839       38       0.15430441      -0.84788239      -0.04264575
C        3.90837188       6.06692846       6.21796790       39      -0.18374589       0.10372342      -0.29826501
C        7.30627181       6.36824643       5.90583559       40      -0.07216389      -0.37125364       0.00070183
C        6.78997182       4.34740867       3.95558101       41       0.17074141       0.94091749      -0.55277282
C        3.51403410       3.69839814       5.62590835       42       0.00994324       0.33466172      -0.39597732
C        3.77077340       4.71803796       6.61555762       43       0.05756101      -0.08861010      -0.54854894
C        7.17576444       6.73042611       4.54835237       44       0.07014339       0.14086202      -1.20131195
C        6.92589247       5.71741206       3.55915820       45      -0.09884464      -0.43364581      -1.20177293
C        3.53708149       5.43019967       3.87824234       46      -0.09833106      -0.38987726       0.43679622
C        3.78812528       6.38250295       4.81757545       47      -0.14891121      -1.47920525       0.98170424
C        7.19158993       4.97463772       6.26916587       48      -0.09941289       0.54927129      -0.09224468
C        6.93376874       4.01508233       5.33203618       49       0.00002336       0.13902256       0.26610452
S        7.04730215       1.68883629       8.68363818       50      -0.06963754      -1.04774165      -0.73627484
S        3.66792116       8.70314564       1.48227152       51      -0.72897303      -1.38898754      -0.88739586
N        3.41080540       2.42031897       6.04792752       52      -0.05557799       0.11100784      -0.09246401
N        3.89554566       4.32445795       7.88234800       53      -0.07312490       0.12523971       0.96734250
N        7.31019953       8.00479652       4.06533641       54      -0.02737223       0.31232381       2.39603615
N        6.82894333       6.11141298       2.20711381       55       0.27342463       0.05877881       3.25950480
O        5.24684492      10.26509912       8.03538198       56       0.60520518      -0.27926591       0.14094023
O        2.04483407       2.08969664       0.04879949       57      -0.01248614      -0.15727432       0.34297255
O        5.45088129       0.16288752       2.05179610       58       0.49756870      -0.50372022       0.71989632
O        8.65116937       8.34550130      10.05235344       59       0.39766073       0.68903059      -1.04812253
O        5.90895121       1.92374886       7.74951392       60      -0.58971918       0.24250549      -0.32698119
O        8.18384635       2.55946684       8.38749713       61       1.27360427       1.15031099      -0.44473886
O        4.77846672       8.44672957       2.39136019       62       1.46867490      -0.46746123       1.07079697
O        2.51605621       7.77406892       1.75360040       63      -0.31097233      -0.23867461       0.20293900
O        7.53377084       0.25005514       8.49812225       64      -0.13027877      -0.50573575       0.05978035
O        6.60324498       1.88977593      10.08420754       65      -0.59611607       0.12154175       1.31641662
O        3.19370126      10.07852935       1.62791506       66      -0.65441132       2.39431620       0.09656726
O        4.11212078       8.48043219       0.05196291       67       0.13602695       0.01032672      -0.81686932
68
Lattice="6.81293716 0.0 0.0 1.9955007975771462 10.062549907183003 0.0 1.9954455714115176 0.25606045573550335 10.059359484735596" Properties=species:S:1:pos:R:3:spacegroup_kinds:I:1:forces:R:3 spacegroup="P 1" unit_cell=conventional occupancy="_JSON {\"0\": {\"Zn\": 1}, \"1\": {\"Zn\": 1}, \"2\": {\"H\": 1}, \"3\": {\"H\": 1}, \"4\": {\"H\": 1}, \"5\": {\"H\": 1}, \"6\": {\"H\": 1}, \"7\": {\"H\": 1}, \"8\": {\"H\": 1}, \"9\": {\"H\": 1}, \"10\": {\"H\": 1}, \"11\": {\"H\": 1}, \"12\": {\"H\": 1}, \"13\": {\"H\": 1}, \"14\": {\"H\": 1}, \"15\": {\"H\": 1}, \"16\": {\"H\": 1}, \"17\": {\"H\": 1}, \"18\": {\"H\": 1}, \"19\": {\"H\": 1}, \"20\": {\"H\": 1}, \"21\": {\"H\": 1}, \"22\": {\"H\": 1}, \"23\": {\"H\": 1}, \"24\": {\"H\": 1}, \"25\": {\"H\": 1}, \"26\": {\"C\": 1}, \"27\": {\"C\": 1}, \"28\": {\"C\": 1}, \"29\": {\"C\": 1}, \"30\": {\"C\": 1}, \"31\": {\"C\": 1}, \"32\": {\"C\": 1}, \"33\": {\"C\": 1}, \"34\": {\"C\": 1}, \"35\": {\"C\": 1}, \"36\": {\"C\": 1}, \"37\": {\"C\": 1}, \"38\": {\"C\": 1}, \"39\": {\"C\": 1}, \"40\": {\"C\": 1}, \"41\": {\"C\": 1}, \"42\": {\"C\": 1}, \"43\": {\"C\": 1}, \"44\": {\"C\": 1}, \"45\": {\"C\": 1}, \"46\": {\"C\": 1}, \"47\": {\"C\": 1}, \"48\": {\"C\": 1}, \"49\": {\"C\": 1}, \"50\": {\"S\": 1}, \"51\": {\"S\": 1}, \"52\": {\"N\": 1}, \"53\": {\"N\": 1}, \"54\": {\"N\": 1}, \"55\": {\"N\": 1}, \"56\": {\"O\": 1}, \"57\": {\"O\": 1}, \"58\": {\"O\": 1}, \"59\": {\"O\": 1}, \"60\": {\"O\": 1}, \"61\": {\"O\": 1}, \"62\": {\"O\": 1}, \"63\": {\"O\": 1}, \"64\": {\"O\": 1}, \"65\": {\"O\": 1}, \"66\": {\"O\": 1}, \"67\": {\"O\": 1}}" energy=-442.00933837890625 free_energy=-442.00933837890625 stress="-0.011047009378671646 -0.002027955139055848 -0.0014794499147683382 -0.002027955139055848 -0.023988723754882812 -0.002888880204409361 -0.0014794499147683382 -0.002888880204409361 -0.014628896489739418" pbc="T T T"
Zn       3.62909175       2.26799193       8.17080974        0      -0.16531487      -0.11015077      -0.61625046
Zn       7.02705036       8.21995248       2.05513694        1      -0.02641939       0.19365256      -0.43324941
H        3.05148289       0.46409072       5.59440913        2       0.09508383       0.41885310      -0.10245563
H        4.17946691       4.88279414       9.89154516        3       0.00039132       0.00709105      -0.00270952
H        7.63222972      10.00831857       4.61885281        4      -0.14347452      -0.16230707       0.28655666
H        6.46517834       5.57095032       0.33990639        5      -0.03243586       0.05893426      -0.78779781
H        2.77694734       0.92718019       3.13880936        6      -0.14306530      -0.72346038      -0.55211186
H        4.47985999       7.27094610       9.38482804        7      -0.01120044       0.53289944       0.29494771
H        7.87164134       9.53593908       7.06714570        8       0.05144508       0.23973347       0.28462258
H        6.19230494       3.14393578       0.84343147        9       0.00279932       0.18558763       0.18849726
H        2.98603052       3.26400820       2.30767978       10       0.02832306      -0.05072055      -0.16375594
H        4.24935698       8.02991175       7.00412543       11       0.21132991       1.76864493      -0.31936145
H        7.66421088       7.20377065       7.91506430       12      -0.04471225      -0.00799245      -0.25796223
H        6.39175618       2.38154229       3.21605923       13      -0.02403136      -0.16827261      -0.02263017
H        3.40645813       5.73363992       2.87446232       14      -0.07785335       0.28424209      -0.50789005
H        3.86204365       7.38688479       4.54078909       15       0.28011486       2.08941746      -0.66063893
H        7.26081102       4.72026899       7.34369379       16       0.06879795      -0.12358011       0.06893709
H        6.79106287       3.01151919       5.67573112       17      -0.01147971      -0.11045508       0.09509932
H        4.23420784      10.22110945       8.12464773       18      -0.42432690       0.09115940       0.23719130
H        3.01392385       1.94825009       0.05119797       19       0.05772253       0.11660487       0.19981721
H        6.41996445       0.16560123       1.92080315       20       0.38464907       0.08770362      -0.05824409
H        7.62917153       8.45142705       9.92627929       21       0.25773287      -0.03706447       0.59790373
H        5.60439509       9.76215018       8.76984291       22       0.06598376      -0.22299373       0.38899264
H        1.64979155       1.34205307       0.53938866       23      -0.16979745      -0.12902759       0.25808096
H        5.07413115       0.62297963       1.24178616       24      -0.26415741       0.38200349      -0.34174600
H        8.99693630       9.10798566       9.45911210       25      -0.11859424      -0.64736891       0.85110092
C        3.13778990       1.48936050       5.19546467       26      -0.50787085      -1.78653872      -1.71544218
C        4.10142161       5.26234317       8.87402961       27       0.02249439      -0.62361652      -0.30199385
C        7.50573817       8.99991947       5.03433886       28       0.26844910      -0.42061847      -1.04877865
C        6.54813354       5.22387497       1.34927182       29      -0.29665723      -1.58770919      -1.17469370
C        2.98453253       1.72628243       3.80678336       30       0.19952860       0.72323263       1.09149361
C        4.24364804       6.60744333       8.57512805       31       0.08511064      -0.16634104      -0.01162428
C        7.66086777       8.71428357       6.40257429       32      -0.13064925       0.59941757      -1.01887298
C        6.39000964       3.85203738       1.65485071       33      -0.09190322       0.06335548      -0.18485044
C        3.11076625       3.02338110       3.36362433       34      -0.10277585       0.72991979       0.14314212
C        4.12929558       7.02514880       7.26456508       35      -0.03002621      -1.17967343       0.10482719
C        7.53848817       7.42398995       6.84249649       36       0.13211583      -0.34378070       0.92341602
C        6.50210403       3.43473057       2.96134857       37      -0.00276779      -0.15432468      -0.11879271
C        3.35333478       4.09456795       4.28092481       38       0.15920889      -1.04671717       0.25490010
C        3.88365136       6.09238801       6.24783892       39      -0.31827804      -0.17497487      -0.48645350
C        7.27629095       6.39425984       5.93506440       40      -0.04756659      -0.48055261      -0.27858746
C        6.76815087       4.36813846       3.98392886       41       0.07705298       1.44186532      -0.82072163
C        3.48547712       3.72282008       5.65506601       42      -0.02100233       0.77868575      -1.18648493
C        3.74100922       4.74472847       6.64472324       43       0.08910264      -0.27887076      -0.66859525
C        7.15603630       6.75602085       4.56820395       44      -0.07117188       0.17431939      -0.93898869
C        6.89620605       5.74307569       3.58734340       45       0.21817429      -0.39184216      -1.63359213
C        3.50748136       5.45737450       3.90762939       46      -0.11698140      -0.45815507       0.27476406
C        3.75862969       6.40407190       4.84721150       47      -0.08939780      -1.28469598       1.06715834
C        7.16380838       5.00389277       6.29871551       48      -0.14519300       0.29346806      -0.28278434
C        6.91104386       4.04327806       5.35316043       49       0.00606307       0.00696655       0.67037946
S        7.02018401       1.70153789       8.71178809       50      -0.20359442      -0.76232469      -0.86284244
S        3.64632928       8.71341554       1.49999013       51      -0.85236573      -0.77547085      -0.61689425
N        3.38142251       2.44459310       6.03118401       52       0.29808065       0.82161689       2.00425148
N        3.87251926       4.35337985       7.90739114       53      -0.13817963      -0.04063763       1.11600089
N        7.28126772       8.03454883       4.09156931       54       0.00865591       0.23200941       2.31322575
N        6.83207559       6.14115127       2.20624573       55       0.13384339       0.20282242       4.29379606
O        5.22030616      10.29185237       8.03626085       56       0.51687711       0.13601588      -0.48203966
O        2.01709179       2.11914510       0.04857780       57       0.17935063      -0.09259151       0.35277823
O        5.43207655       0.19150024       2.04871523       58      -0.15955499      -0.52128029       0.68634760
O        8.62600825       8.37444198      10.08146976       59       0.12887624       0.60233343      -1.18338537
O        5.88055509       1.94564648       7.77333864       60      -0.48191065       0.19469568      -0.23628220
O        8.15621223       2.57259541       8.41422257       61       1.31682539       1.20559669      -0.45463073
O        4.75216018       8.47459594       2.42092835       62       1.41705275      -0.51573241       1.04841208
O        2.48650819       7.80316925       1.76941753       63      -0.33724385      -0.38946080       0.27176884
O        7.50856355       0.27413925       8.52229006       64      -0.10376117      -0.71380126       0.04970628
O        6.57427437       1.91690923      10.11175499       65      -0.61646277       0.07610518       1.20704567
O        3.17012008      10.10077664       1.63235938       66      -0.54253078       2.14677191       0.13606714
O        4.08509759       8.51031423       0.08094447       67       0.30347282      -0.20262152      -1.22709394
68