104
Lattice="7.81028647 0.0 0.0 0.0 9.87198608 0.0 0.0 -0.5136584491047421 13.467207728317822" Properties=species:S:1:pos:R:3:spacegroup_kinds:I:1:forces:R:3 spacegroup="P 1" unit_cell=conventional occupancy="_JSON {\"0\": {\"Cd\": 1}, \"1\": {\"Cd\": 1}, \"2\": {\"Cd\": 1}, \"3\": {\"Cd\": 1}, \"4\": {\"H\": 1}, \"5\": {\"H\": 1}, \"6\": {\"H\": 1}, \"7\": {\"H\": 1}, \"8\": {\"H\": 1}, \"9\": {\"H\": 1}, \"10\": {\"H\": 1}, \"11\": {\"H\": 1}, \"12\": {\"H\": 1}, \"13\": {\"H\": 1}, \"14\": {\"H\": 1}, \"15\": {\"H\": 1}, \"16\": {\"H\": 1}, \"17\": {\"H\": 1}, \"18\": {\"H\": 1}, \"19\": {\"H\": 1}, \"20\": {\"H\": 1}, \"21\": {\"H\": 1}, \"22\": {\"H\": 1}, \"23\": {\"H\": 1}, \"24\": {\"H\": 1}, \"25\": {\"H\": 1}, \"26\": {\"H\": 1}, \"27\": {\"H\": 1}, \"28\": {\"H\": 1}, \"29\": {\"H\": 1}, \"30\": {\"H\": 1}, \"31\": {\"H\": 1}, \"32\": {\"H\": 1}, \"33\": {\"H\": 1}, \"34\": {\"H\": 1}, \"35\": {\"H\": 1}, \"36\": {\"H\": 1}, \"37\": {\"H\": 1}, \"38\": {\"H\": 1}, \"39\": {\"H\": 1}, \"40\": {\"C\": 1}, \"41\": {\"C\": 1}, \"42\": {\"C\": 1}, \"43\": {\"C\": 1}, \"44\": {\"C\": 1}, \"45\": {\"C\": 1}, \"46\": {\"C\": 1}, \"47\": {\"C\": 1}, \"48\": {\"C\": 1}, \"49\": {\"C\": 1}, \"50\": {\"C\": 1}, \"51\": {\"C\": 1}, \"52\": {\"C\": 1}, \"53\": {\"C\": 1}, \"54\": {\"C\": 1}, \"55\": {\"C\": 1}, \"56\": {\"C\": 1}, \"57\": {\"C\": 1}, \"58\": {\"C\": 1}, \"59\": {\"C\": 1}, \"60\": {\"C\": 1}, \"61\": {\"C\": 1}, \"62\": {\"C\": 1}, \"63\": {\"C\": 1}, \"64\": {\"S\": 1}, \"65\": {\"S\": 1}, \"66\": {\"S\": 1}, \"67\": {\"S\": 1}, \"68\": {\"N\": 1}, \"69\": {\"N\": 1}, \"70\": {\"N\": 1}, \"71\": {\"N\": 1}, \"72\": {\"N\": 1}, \"73\": {\"N\": 1}, \"74\": {\"N\": 1}, \"75\": {\"N\": 1}, \"76\": {\"O\": 1}, \"77\": {\"O\": 1}, \"78\": {\"O\": 1}, \"79\": {\"O\": 1}, \"80\": {\"O\": 1}, \"81\": {\"O\": 1}, \"82\": {\"O\": 1}, \"83\": {\"O\": 1}, \"84\": {\"O\": 1}, \"85\": {\"O\": 1}, \"86\": {\"O\": 1}, \"87\": {\"O\": 1}, \"88\": {\"O\": 1}, \"89\": {\"O\": 1}, \"90\": {\"O\": 1}, \"91\": {\"O\": 1}, \"92\": {\"O\": 1}, \"93\": {\"O\": 1}, \"94\": {\"O\": 1}, \"95\": {\"O\": 1}, \"96\": {\"O\": 1}, \"97\": {\"O\": 1}, \"98\": {\"O\": 1}, \"99\": {\"O\": 1}, \"100\": {\"O\": 1}, \"101\": {\"O\": 1}, \"102\": {\"O\": 1}, \"103\": {\"O\": 1}}" energy=-644.01708984375 free_energy=-644.01708984375 stress="-0.00743698189035058 -0.00511319562792778 -0.0020598971750587225 -0.00511319562792778 -0.018114978447556496 0.0022321604192256927 -0.0020598971750587225 0.0022321604192256927 -0.016499759629368782" pbc="T T T"
Cd       1.44185922       0.60508850      11.57072843        0      -0.21964777       0.30315897      -0.17151764
Cd       5.36318124       8.43941265       8.63626512        1      -0.10251440      -0.08171281       0.09276969
Cd       6.37375223       8.75620045       1.94829880        2       0.10963684      -0.83838528       0.05442062
Cd       2.51969458       0.85312478       4.80694119        3      -0.02926961       0.39860457       0.01803058
H        2.33755841       3.35990671      10.76781851        4       0.00415317       0.53959566      -0.21253681
H        6.21150441       5.69617296       9.44056944        5       1.94169068       0.65595412       0.66352916
H        5.47325070       5.98202999       2.74168808        6       0.92336023      -0.61029768      -0.70570040
H        1.61589081       3.61406047       4.03988071        7       0.50278920       0.77062178       0.17908537
H        1.68727367       5.82199629      10.78959328        8      -0.30964059      -0.15128636       0.38609576
H        5.59497128       3.22813781       9.35269880        9      -0.32351172       0.81217808      -0.13856141
H        6.14406680       3.51420788       2.62510817       10       0.12581021      -0.01923372      -0.00848640
H        2.22040652       6.11079679       4.06107603       11       1.06056106      -0.80002517       0.44502607
H        7.22178838       6.48355035      11.77400639       12       0.41541344      -0.79283786      -0.01970208
H        3.38185506       2.59326646       8.42117099       13       0.12529115       0.21795112       0.21700418
H        0.57971104       2.87511228       1.63861423       14       0.06368468       0.03017148       0.11263041
H        4.49763744       6.71454487       5.01522438       15      -0.27729383      -0.84907210      -0.07612142
H        6.50634391       2.23119653      12.35556560       16       0.08995326      -0.17284951       0.08788132
H        2.61345482       6.88510678       7.82542948       17      -0.08163208       0.00468403       0.07328125
H        1.36437901       7.08991713       1.11188135       18      -0.25150174       0.32726574       0.22107792
H        5.25242140       2.50675475       5.65130663       19      -0.46854982       0.18269521      -0.21495487
H        5.15496817       5.78945568      12.59149212       20      -0.48389727       1.26084495       0.04986725
H        1.33265671       3.28783238       7.63038360       21      -0.51030290      -1.43277574      -0.17789653
H        2.65246560       3.54530875       0.90039494       22      -0.07879066      -0.08391486      -0.02558729
H        6.56225853       6.05022244       5.85385616       23      -0.19004895      -0.67843676       0.03578632
H        3.73204221       0.99621945      10.21429300       24       0.11774210      -0.08015604       0.06013422
H        7.64965174       8.12623250       9.97469704       25      -0.54597831      -0.36821765      -0.02570288
H        4.10322278       8.36339931       3.28297181       26      -0.24749613       0.14301425       0.08770825
H        0.16214176       1.24247147       3.46541292       27       0.00081197      -0.41759002      -0.94214606
H        4.23237630       1.12304925      11.67052642       28       2.83460569      -1.34675884       2.60351396
H        0.35856296       7.93891779       8.55294170       29      -0.45451954      -0.31028992      -0.32709891
H        3.60302469       8.20130816       1.76078231       30      -0.27627882       0.12745456      -0.00390251
H        7.50127343       1.36722716       4.92868343       31       0.18044329       0.14448848       0.25930882
H        2.40974105       8.08088811      12.55643913       32      -0.26532453       0.38595808      -1.27384806
H        6.25281131       0.94969405       7.68039471       33       0.35415235       0.40317830      -1.10426593
H        5.46993406       1.20310220       0.96107681       34       0.01296075      -0.08088846       0.78703028
H        1.56265430       8.34675830       5.76264095       35      -0.23454505      -0.58471668       1.85713041
H        3.33405421       8.40911333      11.32171670       36      -0.74733460      -0.19860452       0.02509380
H        7.28580642       0.71286707       8.86824334       37       0.04574778       0.11471089      -0.37466130
H        4.51356162       0.97796558       2.10132386       38      -3.41277838      -0.02670227       0.73316264
H        0.58448665       8.66733196       4.56361189       39       1.16465092      -0.15435639       0.61148894
C        1.37001917       3.76453629      11.06675144       40       0.42012447      -2.86259508       0.80401683
C        5.28386403       5.36695649       9.13314868       41      -2.74689579       0.19567689      -1.27113724
C        6.45021804       5.61208387       2.32016534       42      -0.15727997       0.37111926       0.92902195
C        2.59606299       4.01339652       4.38184573       43      -1.58666682      -2.35613918      -0.23242943
C        1.01476851       5.04322335      11.19012949       44      -1.47920251       2.99143028      -0.07557021
C        4.91016112       4.05778450       9.03825857       45       0.25520179      -2.36525726       0.43805161
C        6.85275912       4.27777461       2.29326571       46      -0.17232628      -0.32558408      -0.33457103
C        2.96345461       5.32947084       4.42218393       47      -1.56845140       0.89628136      -0.62356681
C        7.53163758       5.41188348      11.73012148       48       2.32180023       1.35684586      -1.24702680
C        3.65536160       3.64774817       8.55282659       49       0.50442922       1.14065754      -0.77270865
C        0.29507945       3.91753752       1.76348416       50      -1.13483977       1.12063372       0.22858723
C        4.18642349       5.64011842       4.94259533       51       1.06303191       2.16496229       0.42403418
C        6.67936673       4.44056923      12.14138161       52      -1.25777197      -2.02010989       0.88382363
C        2.83021979       4.65690191       8.02283360       53      -1.92620277       0.74866426       0.59663969
C        1.12342925       4.97164841       1.32706556       54       1.46153140      -1.59423184      -0.22233702
C        5.07713602       4.67010184       5.41902011       55      -1.58564186      -1.41124010      -0.84553874
C        7.14035509       3.05918746      12.05520383       56       0.33624363       1.24487352      -0.55601269
C        3.21990519       6.05549913       8.18039560       57      -0.27793196      -2.16966772      -0.46778339
C        0.69614062       6.30346897       1.46369656       58       1.67472351      -0.79314351      -0.82147700
C        4.59340069       3.32368534       5.30569242       59       1.43813896      -0.23722591       0.76287913
C        4.57677065       4.00175793      13.29860906       60      -2.14700174       2.18733168       0.41150412
C        0.63652150       5.05758953       6.88207899       61      -0.21233529      -1.72701311       1.24364257
C        3.32306248       5.32263811       0.22828380       62       0.55936283      -0.21212402      -0.47531915
C        7.21422738       4.24171394       6.57677144       63      -0.72899234       0.15901545      -1.25969970
S        5.97244811       8.88781255      12.10560899       64       0.51727629       2.05126977      -4.27686024
S        2.07573625       0.14160485       8.16345286       65       1.71252465       1.77212858      -1.40254283
S        1.82242575       0.45320056       1.40777493       66      -0.71484250      -3.82426500       1.35066080
S        5.77739590       9.17671164       5.32048396       67      -2.41590834      -0.80807614       1.00204825
N        0.55228190       2.77030153      11.54285646       68      -1.30948806       0.12887187       0.31796071
N        4.40535717       6.33016244       8.69401701       69       0.94794285       0.27728274       0.43459189
N        7.32023415       6.58346127       1.94484032       70      -1.46493363       0.77113354       0.31539091
N        3.38346346       2.99245352       4.84052693       71       0.62968129       1.44681525      -0.26092532
N        5.39666462       4.82731371      12.65461875       72       3.23181081      -1.49412596      -1.49730527
N        1.50291286       4.26546859       7.59443860       73       2.61362147       2.18100381       0.22030088
N        2.40853511       4.53737607       0.83292746       74      -1.64044023       0.90634161       0.81774360
N        6.31482837       5.03102712       5.84803204       75       1.13009346       0.35820854       0.87836063
O        4.68642956       3.34679937       0.09211715       76       0.71088469      -2.29993010       0.39839727
O        0.75555270       6.24190358       6.63145763       77       0.42896947       1.06989133      -0.40471095
O        3.21875119       5.99979423      13.39383070       78      -0.45219484       0.09258959       0.23751445
O        7.07809852       3.04263677       6.84479816       79      -0.16115856       0.71702015      -0.00863684
O        7.29569593       9.11091895      11.40708710       80       0.98963177       0.13427781      -0.05344192
O        3.44671319      -0.03586562       8.73144695       81       0.65553421       0.12355608       0.54449010
O        0.44310557       0.21800209       2.05556907       82       0.49209327       0.15557891      -0.35720301
O        4.40668536       9.37323973       4.73772290       83      -0.77851713      -0.12459821      -0.47868180
O        6.06289137       7.91221427      13.09129335       84       0.29213908      -3.43325472       3.78169060
O        2.12763556       1.18086108       7.04397205       85       0.25376916       0.09201324       0.05210918
O        1.78822634       1.43511109       0.39325047       86      -0.42694655       2.54448652      -2.91877174
O        5.68049975       8.10514907       6.37226265       87       0.04520735      -0.27154288       0.58744013
O        5.07175242       8.38605945      10.96180923       88      -0.65234303      -0.14622265      -0.00499305
O        1.16621826       0.70641619       9.16861330       89      -1.12853563       0.57191330       1.91295660
O        2.78904039       0.89134494       2.44416894       90       0.73795563       0.46463042       1.50416815
O        6.64781459       8.69293349       4.26943258       91       2.02815294      -1.03593779      -2.24622655
O        5.47081704       0.29555361      12.59086002       92      -0.67792428       1.59791601       0.95764101
O        1.58784229       8.78676428       7.60504193       93      -1.03509808      -2.52990580      -0.65544617
O        2.35070287       8.97737212       0.84032132       94      -0.36147967       0.60791361       0.26094273
O        6.23847064       0.55976942       5.84951318       95       0.99683011       2.14159608       1.04334116
O        3.58569471       1.42598116      11.09454663       96      -3.31173515       1.39241004      -2.80215955
O        7.42854862       7.60367278       9.14736346       97       0.91812158       0.65761578       0.24171153
O        4.22449375       7.84460580       2.45153516       98       0.71961331      -0.08831846      -0.13147599
O        0.38975421       1.69026742       4.29334370       99       0.03469172       0.36287859       0.90514541
O        2.33722872       8.32149912      11.54604050      100       1.24856448      -0.39295864       1.23080611
O        6.32303402       0.71741603       8.61280622      101      -0.36528119      -0.26139641       1.47007000
O        5.42932480       0.97368800       1.95223025      102       3.26612711       0.59058523      -1.77770805
O        1.57419973       8.63936636       4.86082459      103      -1.32006228       0.25402179      -2.56378317
104
Lattice="7.81028647 0.0 0.0 0.0 9.87198608 0.0 0.0 -0.5136584491047421 13.467207728317822" Properties=species:S:1:pos:R:3:spacegroup_kinds:I:1:forces:R:3 spacegroup="P 1" unit_cell=conventional occupancy="_JSON {\"0\": {\"Cd\": 1}, \"1\": {\"Cd\": 1}, \"2\": {\"Cd\": 1}, \"3\": {\"Cd\": 1}, \"4\": {\"H\": 1}, \"5\": {\"H\": 1}, \"6\": {\"H\": 1}, \"7\": {\"H\": 1}, \"8\": {\"H\": 1}, \"9\": {\"H\": 1}, \"10\": {\"H\": 1}, \"11\": {\"H\": 1}, \"12\": {\"H\": 1}, \"13\": {\"H\": 1}, \"14\": {\"H\": 1}, \"15\": {\"H\": 1}, \"16\": {\"H\": 1}, \"17\": {\"H\": 1}, \"18\": {\"H\": 1}, \"19\": {\"H\": 1}, \"20\": {\"H\": 1}, \"21\": {\"H\": 1}, \"22\": {\"H\": 1}, \"23\": {\"H\": 1}, \"24\": {\"H\": 1}, \"25\": {\"H\": 1}, \"26\": {\"H\": 1}, \"27\": {\"H\": 1}, \"28\": {\"H\": 1}, \"29\": {\"H\": 1}, \"30\": {\"H\": 1}, \"31\": {\"H\": 1}, \"32\": {\"H\": 1}, \"33\": {\"H\": 1}, \"34\": {\"H\": 1}, \"35\": {\"H\": 1}, \"36\": {\"H\": 1}, \"37\": {\"H\": 1}, \"38\": {\"H\": 1}, \"39\": {\"H\": 1}, \"40\": {\"C\": 1}, \"41\": {\"C\": 1}, \"42\": {\"C\": 1}, \"43\": {\"C\": 1}, \"44\": {\"C\": 1}, \"45\": {\"C\": 1}, \"46\": {\"C\": 1}, \"47\": {\"C\": 1}, \"48\": {\"C\": 1}, \"49\": {\"C\": 1}, \"50\": {\"C\": 1}, \"51\": {\"C\": 1}, \"52\": {\"C\": 1}, \"53\": {\"C\": 1}, \"54\": {\"C\": 1}, \"55\": {\"C\": 1}, \"56\": {\"C\": 1}, \"57\": {\"C\": 1}, \"58\": {\"C\": 1}, \"59\": {\"C\": 1}, \"60\": {\"C\": 1}, \"61\": {\"C\": 1}, \"62\": {\"C\": 1}, \"63\": {\"C\": 1}, \"64\": {\"S\": 1}, \"65\": {\"S\": 1}, \"66\": {\"S\": 1}, \"67\": {\"S\": 1}, \"68\": {\"N\": 1}, \"69\": {\"N\": 1}, \"70\": {\"N\": 1}, \"71\": {\"N\": 1}, \"72\": {\"N\": 1}, \"73\": {\"N\": 1}, \"74\": {\"N\": 1}, \"75\": {\"N\": 1}, \"76\": {\"O\": 1}, \"77\": {\"O\": 1}, \"78\": {\"O\": 1}, \"79\": {\"O\": 1}, \"80\": {\"O\": 1}, \"81\": {\"O\": 1}, \"82\": {\"O\": 1}, \"83\": {\"O\": 1}, \"84\": {\"O\": 1}, \"85\": {\"O\": 1}, \"86\": {\"O\": 1}, \"87\": {\"O\": 1}, \"88\": {\"O\": 1}, \"89\": {\"O\": 1}, \"90\": {\"O\": 1}, \"91\": {\"O\": 1}, \"92\": {\"O\": 1}, \"93\": {\"O\": 1}, \"94\": {\"O\": 1}, \"95\": {\"O\": 1}, \"96\": {\"O\": 1}, \"97\": {\"O\": 1}, \"98\": {\"O\": 1}, \"99\": {\"O\": 1}, \"100\": {\"O\": 1}, \"101\": {\"O\": 1}, \"102\": {\"O\": 1}, \"103\": {\"O\": 1}}" energy=-640.6171875 free_energy=-640.6171875 stress="0.00018443386943545192 -0.0009184732916764915 -0.0028280767146497965 -0.0009184732916764915 -0.030194714665412903 -0.004862797912210226 -0.0028280767146497965 -0.004862797912210226 -0.013130457140505314" pbc="T T T"
Cd       1.48006410       0.56696988      11.55238230        0      -0.26668108       0.47744089       0.06862739
Cd       5.36750057       8.46921399       8.68089482        1       0.00869869      -0.30114913      -0.14216709
Cd       6.36612573       8.71904628       1.95073129        2       0.13586555      -0.66186810       0.11977232
Cd       2.53757303       0.81500938       4.81238545        3      -0.03040946       0.61554229      -0.14642280
H        2.36923953       3.34134041      10.77209682        4      -0.03221347       0.88527519      -0.17833100
H        6.25041305       5.71835172       9.42615832        5      -0.10972738      -0.19282734      -0.03202897
H        5.48583376       5.93586134       2.74636180        6       1.60072207      -0.82446933      -1.07975411
H        1.64559113       3.60858814       4.05945935        7       0.87481892       1.28618240       0.32968259
H        1.72553665       5.84747474      10.83070683        8      -1.53008270      -1.45345283       0.94354677
H        5.62829667       3.17905803       9.39262584        9      -0.43663019       1.33134437      -0.30614737
H        6.14545747       3.54027091       2.63453892       10       0.59178758       0.47768664      -0.20954381
H        2.20684494       6.11975466       4.07473518       11       1.74418616      -1.47770643       0.87764823
H        7.24499024       6.46340776      11.80705414       12       0.51662689      -1.02103925       0.01639579
H        3.36071514       2.61568759       8.42912904       13      -0.59241587      -2.31855130      -0.05089277
H        0.57485781       2.87112878       1.68115927       14      -0.01031791      -0.24656887       0.10144449
H        4.48409497       6.74519628       5.00018560       15      -0.16655722      -1.67899632       0.06957451
H        6.50109485       2.19030519      12.39509781       16       0.14903425      -0.01865363      -0.01413062
H        2.61059759       6.91570265       7.78262831       17       0.88898063      -1.31407690       0.86235082
H        1.34270282       7.08876418       1.09969867       18       0.22401851       0.76530552       0.12091932
H        5.30031284       2.52476556       5.67478273       19      -0.66152257      -0.24198803      -0.29925990
H        5.17365642       5.74226986      12.58580948       20      -1.46032906       5.29642534      -0.35305223
H        1.37702853       3.24297069       7.59750962       21      -0.01724169       1.48466420      -0.04573190
H        2.66963806       3.53155616       0.87352770       22       0.20646542      -1.13498294       0.01432296
H        6.60568429       6.07800052       5.90230038       23      -0.35971671      -0.62179673      -0.03925454
H        3.76583650       0.98651145      10.18377012       24       0.07981922      -0.06317062       0.20469786
H        7.69214588       8.07872927       9.99358480       25      -0.76769900      -0.60714757      -0.15735656
H        4.09669719       8.31984543       3.31443818       26      -0.21762121       0.21985540      -0.01454572
H        0.20739491       1.20966689       3.51234120       27      -1.35014129      -3.27727318      -5.41677856
H        4.26203806       1.13833434      11.65608166       28       2.95371175      -1.27940023       2.72676039
H        0.40061842       7.94496038       8.59472302       29      -0.47005755      -0.43579429      -0.57416373
H        3.60366324       8.24256567       1.76647494       30       0.06158549      -0.17533720       0.48598075
H        7.48073100       1.39459151       4.97290125       31       1.00061655       0.24220799      -1.04283512
H        2.42989938       8.09702602      12.59071828       32      -0.03980642       0.20187530      -1.02279270
H        6.28808138       0.90816872       7.65671374       33       0.53837061       0.30036452      -0.66450459
H        5.49232036       1.19600308       0.93380529       34       0.22596830      -0.65408319       2.29140234
H        1.60510383       8.30005893       5.79265541       35      -0.44206566      -0.04714750       0.22679973
H        3.38045843       8.39043997      11.31599625       36      -1.52319360      -0.31521443       0.52914411
H        7.30179132       0.68822256       8.91496855       37       0.03682879       0.16752966      -0.58787656
H        4.56159674       1.00612023       2.08167857       38      -4.36232042       0.14682767       1.00514102
H        0.55851105       8.63648614       4.55862410       39       1.73183489      -0.13345286       0.97307450
C        1.41390060       3.78145433      11.07602615       40      -0.18956420      -6.41149330       1.36886454
C        5.26332016       5.37346384       9.10851264       41       1.51000237      -0.69448143       0.71699166
C        6.49212145       5.56891830       2.29882074       42      -2.59412193       4.18708801       1.52503586
C        2.63939462       4.02854338       4.41809513       43      -3.92766404      -4.03920984      -1.32420909
C        0.99748473       5.00012936      11.23590909       44       0.69347149       6.61587667      -1.05781603
C        4.95321701       4.03270830       9.06742464       45      -2.34532762      -2.85073042      -0.34231070
C        6.87995223       4.30946532       2.28145076       46      -1.66598225      -4.03566790       0.75545037
C        2.98802763       5.31816885       4.46746697       47      -2.39103270       2.95472312      -1.25857973
C        7.56293497       5.38366562      11.77141098       48       0.48531693       0.88538349      -0.50384432
C        3.60602093       3.60098818       8.59833284       49       4.01370573       4.97697115       0.01636320
C        0.27600177       3.90485565       1.78784264       50       1.12205577       1.05142438      -0.88023746
C        4.19943062       5.63189132       4.95765982       51       2.18556237       2.52933002       0.81901097
C        6.69585826       4.39685471      12.18839938       52      -2.11987162      -0.38652176       0.75773591
C        2.86571938       4.66789292       8.03301220       53      -2.61185694       0.05611095       0.85597658
C        1.10225892       4.93960140       1.32402509       54       2.57590652      -0.30903649      -0.09098785
C        5.10457859       4.63185123       5.43532115       55      -1.27070904       0.62567866      -0.79997063
C        7.11370731       3.03848258      12.09076443       56       2.56398010       0.33988586      -1.08454061
C        3.23959995       6.04813801       8.20365643       57      -0.61905897      -0.20489126      -1.04761887
C        0.69330120       6.33031797       1.48708396       58       2.45437503      -3.06581879      -1.60220838
C        4.61550978       3.30567392       5.31549141       59       0.67812365      -0.31567419       0.23437375
C        4.54143870       3.98488320      13.26208166       60      -2.32842398       1.29307544       1.75020599
C        0.61496768       5.06398203       6.88872211       61       1.25285947      -5.83788586       2.70536613
C        3.33352182       5.32180897       0.25780888       62       0.40119177      -0.43832824      -1.31283832
C        7.23651446       4.20617863       6.57663547       63      -1.20687294       1.81118131      -1.17026412
S        5.94873527       8.85448498      12.10788025       64       2.76055384       2.41865492      -1.80395114
S        2.05886730       0.10103625       8.15513072       65       3.18241048       3.67314577       0.00935957
S        1.85218147       0.40685794       1.41525604       66      -1.05970979      -0.63054901       1.99922097
S        5.81613244       9.19515387       5.33635151       67      -3.15672970      -3.35143900       0.34906891
N        0.60022568       2.73742460      11.57582383       68      -2.44379711       1.35746336       0.35770336
N        4.43309618       6.33565182       8.73430482       69      -1.07461846       0.90642726      -0.61630785
N        7.31926875       6.57966806       1.91859958       70      -1.98478937       0.94386804       0.80926985
N        3.37033806       2.98226912       4.79843614       71       3.12868786       1.12146938       1.26672220
N        5.34884194       4.84155839      12.69760038       72       6.51590061      -5.99669266      -2.18153214
N        1.52748126       4.30514555       7.62702895       73       1.21130943      -1.46715546      -0.21295080
N        2.45193015       4.50544561       0.83247434       74      -3.92037034       2.09598708       1.70135880
N        6.35595496       5.06266500       5.87771833       75      -0.10702725      -1.52960360       0.45654768
O        4.65054635       3.32191085       0.08031147       76       0.77248389      -1.36277580      -0.13780585
O        0.79322345       6.19272496       6.64860414       77       0.39977884       5.38999176      -1.60637569
O        3.21328246       5.98775543      13.38997140       78      -0.55847239       0.25128406       0.52640766
O        7.04755683       3.03463610       6.88564754       79       0.04438612       0.14043763      -0.14303136
O        7.34330614       9.06535751      11.42493888       80      -0.22552365      -0.04505929       0.62491369
O        3.48326501      -0.01456435       8.73512646       81      -0.34700295       0.09647542       0.22005102
O        0.45481642       0.22839968       2.07199936       82       0.82062721      -0.04449889      -0.59394413
O        4.44137878       9.36993445       4.73485012       83      -0.71501452      -0.03824529      -0.23152064
O        6.02134618       7.88337769      13.14003033       84       0.27283800      -2.35832191       2.52845526
O        2.14632951       1.13721860       7.03230613       85      -0.00992015       0.13024847       0.12933242
O        1.82747536       1.43729896       0.40574163       86      -0.37547812       1.62351799      -2.01689148
O        5.70782940       8.09737241       6.40286317       87       0.08065540       0.15871772       0.10141981
O        5.12028294       8.40303116      10.99641543       88      -2.05978632      -0.97397399      -1.75097847
O        1.15755689       0.67600153       9.18733467       89      -0.72561866       0.38401103       1.37258601
O        2.82989223       0.90843086       2.47853204       90      -0.11842749      -0.13015497       0.54981875
O        6.63736798       8.65422642       4.25675558       91       2.04046655      -0.85265487      -1.75487316
O        5.46055146       0.28270635      12.61362584       92      -0.30364046       1.11892295       0.77365482
O        1.62049640       8.76058545       7.63632731       93      -1.55137336      -4.13296318      -1.37464654
O        2.33321035       8.99178002       0.86491131       94       0.33691239      -0.96695685      -0.29023814
O        6.26833843       0.51913654       5.88611984       95       1.71053290       3.88955212       1.62378252
O        3.60737759       1.40182774      11.07378338       96      -3.41576099       1.34129083      -3.06200075
O        7.46437965       7.56505747       9.14978242       97       0.98145378       1.00673437       0.69615221
O        4.21257317       7.83600808       2.46133262       98       0.35382402       0.03398872      -0.54066038
O        0.37061028       1.65357558       4.25872581       99       0.57106245       3.19714308       6.76785851
O        2.36834250       8.30552115      11.58617297      100       1.87341523      -0.18121310       0.43498406
O        6.35464705       0.68103903       8.59930486      101      -0.53549546      -0.09604507       1.34240294
O        5.46703528       0.92713480       1.98437855      102       4.01020575       1.09387732      -3.65689707
O        1.57136412       8.63458771       4.87089089      103      -1.76820469      -0.35427979      -1.28612757
104