74
Lattice="8.242401 0.0 0.0 -0.06419810486895985 10.863171925833644 0.0 0.5244177032269756 3.7217850836290642 11.862336077690532" Properties=species:S:1:pos:R:3:spacegroup_kinds:I:1:forces:R:3 spacegroup="P 1" unit_cell=conventional occupancy="_JSON {\"0\": {\"Cu\": 1}, \"1\": {\"Cu\": 1}, \"2\": {\"Cu\": 1}, \"3\": {\"Cu\": 1}, \"4\": {\"Cu\": 1}, \"5\": {\"Cu\": 1}, \"6\": {\"H\": 1}, \"7\": {\"H\": 1}, \"8\": {\"H\": 1}, \"9\": {\"H\": 1}, \"10\": {\"H\": 1}, \"11\": {\"H\": 1}, \"12\": {\"H\": 1}, \"13\": {\"H\": 1}, \"14\": {\"H\": 1}, \"15\": {\"H\": 1}, \"16\": {\"H\": 1}, \"17\": {\"H\": 1}, \"18\": {\"H\": 1}, \"19\": {\"H\": 1}, \"20\": {\"H\": 1}, \"21\": {\"H\": 1}, \"22\": {\"H\": 1}, \"23\": {\"H\": 1}, \"24\": {\"C\": 1}, \"25\": {\"C\": 1}, \"26\": {\"C\": 1}, \"27\": {\"C\": 1}, \"28\": {\"C\": 1}, \"29\": {\"C\": 1}, \"30\": {\"C\": 1}, \"31\": {\"C\": 1}, \"32\": {\"C\": 1}, \"33\": {\"C\": 1}, \"34\": {\"C\": 1}, \"35\": {\"C\": 1}, \"36\": {\"C\": 1}, \"37\": {\"C\": 1}, \"38\": {\"C\": 1}, \"39\": {\"C\": 1}, \"40\": {\"C\": 1}, \"41\": {\"C\": 1}, \"42\": {\"C\": 1}, \"43\": {\"C\": 1}, \"44\": {\"C\": 1}, \"45\": {\"C\": 1}, \"46\": {\"C\": 1}, \"47\": {\"C\": 1}, \"48\": {\"C\": 1}, \"49\": {\"C\": 1}, \"50\": {\"S\": 1}, \"51\": {\"S\": 1}, \"52\": {\"S\": 1}, \"53\": {\"S\": 1}, \"54\": {\"S\": 1}, \"55\": {\"S\": 1}, \"56\": {\"N\": 1}, \"57\": {\"N\": 1}, \"58\": {\"N\": 1}, \"59\": {\"N\": 1}, \"60\": {\"N\": 1}, \"61\": {\"N\": 1}, \"62\": {\"N\": 1}, \"63\": {\"N\": 1}, \"64\": {\"N\": 1}, \"65\": {\"N\": 1}, \"66\": {\"N\": 1}, \"67\": {\"N\": 1}, \"68\": {\"Cl\": 1}, \"69\": {\"Cl\": 1}, \"70\": {\"Cl\": 1}, \"71\": {\"Cl\": 1}, \"72\": {\"Cl\": 1}, \"73\": {\"Cl\": 1}}" energy=-465.77227783203125 free_energy=-465.77227783203125 stress="-0.001071473117917776 -0.00012620247434824705 -0.0007592093315906823 -0.00012620247434824705 0.0006119418540038168 0.0040395199321210384 -0.0007592093315906823 0.0040395199321210384 0.004796450957655907" pbc="T T T"
Cu       5.84405622       2.10219738       1.99255643        0       0.39930275      -0.09155475       0.05912262
Cu       2.86208051      12.48587090       9.82678774        1      -0.58827716      -0.05821098       0.24466041
Cu       4.09256568       8.81842812       5.64321226        2      -0.15394047      -0.54609311       0.38422978
Cu       4.60424019       5.77975449       6.18774768        3       0.13794889       0.45782271      -0.23423931
Cu       0.69098155       4.03094353       0.31586358        4      -0.27889916       0.20428628      -0.08353841
Cu       8.00379117      10.53093074      11.53188947        5       0.56329417      -0.16829345       0.12720288
H        7.55466588      10.47426586       1.32009588        6      -0.16793495      -0.25816414       0.12190864
H        1.14784853       4.13775689      10.58245329        7       0.61917955       0.06162641      -0.82981277
H        7.85593701       8.17474942       2.32620828        8      -0.82651055       0.63012505       0.40628091
H        0.90374703       6.39437201       9.56789327        9      -0.30523527       0.32876575       0.06216829
H        6.26796701       7.55854820       4.25636820       10       0.11455809      -0.11153819      -0.09257291
H        2.44511754       7.02259551       7.59852216       11      -0.14837395       0.71105295      -0.27552748
H        6.96939943       7.33411005      11.20881891       12      -0.92391580       0.14343414       0.24817266
H        1.76588300       7.26543995       0.62866442       13       0.44746757      -0.19119766      -0.15126434
H        5.47739311       8.47487586       9.52822724       14       0.01675940       0.24123459      -0.24377400
H        3.21107234       6.10704695       2.36354508       15       0.14671184       0.12124912      -0.33690536
H        2.97266059       8.60083884       9.97031327       16       0.17718074      -0.23041600       0.10048075
H        5.72992137       5.96858720       1.84146260       17      -0.78480488       0.34801024      -0.14802973
H        0.49823179       2.85097629       3.32931700       18      -0.51757187       0.10759377       0.12877083
H        8.21603496      11.69202813       8.57154923       19      -0.16426611       0.24951413       0.11451193
H        1.23139287       4.56546810       5.07385696       20       0.09934145      -0.12550259       0.08886752
H        7.47674706      10.06720378       6.76234606       21       0.36841512      -0.04306298       0.03994540
H        7.61388945       5.86021260       6.29481011       22       0.09634010      -0.07603842      -0.15314975
H        1.09564552       8.70590228       5.62045419       23      -0.40277192      -0.42967787      -0.57300484
C        4.11211616       2.17859304       3.12517252       24       0.13684523       0.09372723      -0.04519758
C        4.57391917      12.40468949       8.76620687       25      -0.19550097       0.11308341      -0.88841581
C        5.15616048      10.56046352       3.53721228       26       0.71928197      -0.25873557      -0.17169228
C        3.51530658       4.02994580       8.32868601       27       1.35959899       0.34777269      -1.84788036
C        6.89607359      10.09786795       2.11553263       28       0.75874126       1.58140278      -1.01952493
C        1.79120172       4.45236611       9.71738517       29      -1.05909991       0.30692965       1.44090009
C        7.07093440       8.88815663       2.68797567       30       0.31869793      -2.40903234       0.77659506
C        1.62999910       5.70853621       9.17803291       31       0.86452049       0.55092800      -1.28182232
C        6.19602065       8.51312453       3.73912659       32       1.63164353      -0.48305726      -1.06274366
C        2.48215201       6.08326698       8.10267146       33      -0.39661002      -1.61434078       1.27098787
C        3.46664987       3.06605621       0.66818553       34      -0.91583121       0.70559663       0.03205994
C        5.25858249      11.51333239      11.19975749       35      -0.07380044      -0.52132761      -0.29503545
C        5.86497007       7.40003911      11.34441053       36      -0.51980585      -0.03340593      -0.38145334
C        2.85855961       7.18479505       0.50501772       37      -1.50335813      -0.03175766       1.11824286
C        5.03565255       8.05721237      10.41675242       38       1.14715052      -0.55753374       0.13119608
C        3.63395501       6.55058303       1.45495753       39       0.07645032      -0.29670104       0.43343344
C        3.67373833       8.06922052      10.62385464       40       0.32741904       0.45564985      -0.14824584
C        4.98573826       6.50385615       1.20642493       41       1.39574528      -0.85516357       0.88285315
C        5.77761253       3.91320337       4.33788663       42       2.19019413       0.62543708       0.81075633
C        2.90331391      10.63260673       7.50342181       43      -0.90751517       0.63718945       0.34067398
C        7.97428891       3.40350621       3.89992548       44       2.66209269       1.22512114       1.58554769
C        0.68750524      11.15844697       7.96631915       45       1.06089497      -0.95483935      -0.92200488
C        8.42837187       4.34439476       4.89959873       46      -2.10881710      -0.15255496      -0.81392336
C        0.30005413      10.22007528       6.98275927       47      -0.37690833       0.39801034       0.28317967
C        7.39550843       5.09715162       5.54178099       48       2.13998771      -0.92759615      -0.43316320
C        1.28168941       9.49845143       6.31036025       49       0.37784335       0.91896743       1.04165113
S        3.90975068      11.61331488       4.19229134       50       0.36150423      -0.19050688      -0.00555912
S        4.79535080       3.00464915       7.65185799       51      -0.48233360      -0.52425742       0.47900191
S        2.72402331       2.23256148       2.00637123       52      -0.40838435      -0.45290986       0.00147288
S        5.95386650      12.38581856       9.83192312       53       0.62376082       0.16903678       0.85104477
S        4.11648669       3.69975005       4.09071401       54      -1.10053957       0.12442555      -0.45747322
S        4.58426692      10.86020040       7.80252140       55       0.75326109      -0.00374290       0.39325392
N        5.99274427      10.99516862       2.53591123       56      -1.53991342      -0.77404237       1.51054466
N        2.74272926       3.62581921       9.29500872       57      -0.45352396      -0.90183520       0.76269937
N        4.77786747       3.04628374       0.55177280       58       1.28369939       0.30678830      -0.75547063
N        3.89604976      11.52175546      11.32195545       59       1.86318457       0.40456352      -0.79015940
N        6.70856288       3.20411238       3.64206402       60      -1.91393816       0.28794563       0.33772650
N        2.00601583      11.34566478       8.22660936       61      -0.42494941      -0.31632829      -0.53569853
N        5.27205729       9.33365248       4.17253828       62      -0.98260546       2.19850898      -0.62047690
N        3.41530965       5.20324124       7.66460687       63      -0.48501572       0.41118941       0.59735221
N        3.17514827       7.49923659      11.71596663       64      -0.76243937      -0.86049509       0.56772029
N        5.58159442       7.06967671       0.14131794       65      -1.50909066       1.30677819      -0.80506670
N        6.11913163       4.87598767       5.28178723       66      -1.39606762      -1.10191464      -1.21043372
N        2.59849219       9.71960013       6.57373306       67      -0.45856521      -0.15079397       0.01176062
Cl       7.82759932       2.05572060       0.71264417       68       0.03389646       0.05127566       0.09424202
Cl       0.88007436      12.53335994      11.16057657       69      -0.01599201      -0.13448092      -0.17861924
Cl       2.92825418       6.82454164       4.83928820       70       0.39908022       0.11104555       0.28625944
Cl       5.77213442       7.75444760       7.03073706       71      -0.42985037      -0.08002131      -0.31438649
Cl       8.26766377       5.71896981       1.76367239       72      -0.09404692       0.01438719      -0.46773693
Cl       0.43577159       8.85028444      10.11782836       73       0.10501179      -0.03335134       0.40652272
74
Lattice="8.242401 0.0 0.0 -0.06419810486895985 10.863171925833644 0.0 0.5244177032269756 3.7217850836290642 11.862336077690532" Properties=species:S:1:pos:R:3:spacegroup_kinds:I:1:forces:R:3 spacegroup="P 1" unit_cell=conventional occupancy="_JSON {\"0\": {\"Cu\": 1}, \"1\": {\"Cu\": 1}, \"2\": {\"Cu\": 1}, \"3\": {\"Cu\": 1}, \"4\": {\"Cu\": 1}, \"5\": {\"Cu\": 1}, \"6\": {\"H\": 1}, \"7\": {\"H\": 1}, \"8\": {\"H\": 1}, \"9\": {\"H\": 1}, \"10\": {\"H\": 1}, \"11\": {\"H\": 1}, \"12\": {\"H\": 1}, \"13\": {\"H\": 1}, \"14\": {\"H\": 1}, \"15\": {\"H\": 1}, \"16\": {\"H\": 1}, \"17\": {\"H\": 1}, \"18\": {\"H\": 1}, \"19\": {\"H\": 1}, \"20\": {\"H\": 1}, \"21\": {\"H\": 1}, \"22\": {\"H\": 1}, \"23\": {\"H\": 1}, \"24\": {\"C\": 1}, \"25\": {\"C\": 1}, \"26\": {\"C\": 1}, \"27\": {\"C\": 1}, \"28\": {\"C\": 1}, \"29\": {\"C\": 1}, \"30\": {\"C\": 1}, \"31\": {\"C\": 1}, \"32\": {\"C\": 1}, \"33\": {\"C\": 1}, \"34\": {\"C\": 1}, \"35\": {\"C\": 1}, \"36\": {\"C\": 1}, \"37\": {\"C\": 1}, \"38\": {\"C\": 1}, \"39\": {\"C\": 1}, \"40\": {\"C\": 1}, \"41\": {\"C\": 1}, \"42\": {\"C\": 1}, \"43\": {\"C\": 1}, \"44\": {\"C\": 1}, \"45\": {\"C\": 1}, \"46\": {\"C\": 1}, \"47\": {\"C\": 1}, \"48\": {\"C\": 1}, \"49\": {\"C\": 1}, \"50\": {\"S\": 1}, \"51\": {\"S\": 1}, \"52\": {\"S\": 1}, \"53\": {\"S\": 1}, \"54\": {\"S\": 1}, \"55\": {\"S\": 1}, \"56\": {\"N\": 1}, \"57\": {\"N\": 1}, \"58\": {\"N\": 1}, \"59\": {\"N\": 1}, \"60\": {\"N\": 1}, \"61\": {\"N\": 1}, \"62\": {\"N\": 1}, \"63\": {\"N\": 1}, \"64\": {\"N\": 1}, \"65\": {\"N\": 1}, \"66\": {\"N\": 1}, \"67\": {\"N\": 1}, \"68\": {\"Cl\": 1}, \"69\": {\"Cl\": 1}, \"70\": {\"Cl\": 1}, \"71\": {\"Cl\": 1}, \"72\": {\"Cl\": 1}, \"73\": {\"Cl\": 1}}" energy=-464.89959716796875 free_energy=-464.89959716796875 stress="0.0011753154685720801 0.00031248838058672845 -0.004728169180452824 0.00031248838058672845 0.00017561233835294843 0.004762406460940838 -0.004728169180452824 0.004762406460940838 0.003421280300244689" pbc="T T T"
Cu       5.82241535       2.10872123       2.01691425        0       0.68572998      -0.00372839      -0.13730970
Cu       2.87454889      12.46145823       9.84932610        1      -0.68946600       0.06008899       0.20903465
Cu       4.11582618       8.79554748       5.61719510        2      -0.44219869      -0.47548556       0.67086583
Cu       4.59021477       5.77802592       6.17184613        3       0.18885541       0.49000102      -0.12864244
Cu       0.71200892       4.03264153       0.29294605        4      -0.44559884       0.14789669       0.01655367
Cu       7.99013588      10.53879421      11.53216208        5       0.80559528      -0.20711862       0.06399976
H        7.53754679      10.45416776       1.34877113        6       0.26325023      -0.02442767      -0.42847070
H        1.14275626       4.14294125      10.59964173        7       0.60724998       0.23298046      -0.83209366
H        7.85725138       8.19238170       2.30299558        8      -0.66901672       0.25268924       0.40475780
H        0.91964904       6.37912645       9.58391570        9      -0.25266773       0.44472790      -0.12558177
H        6.25759306       7.52921504       4.28220636       10       0.04376186       0.82887352      -0.47484148
H        2.46252548       7.02318214       7.59867277       11      -0.22332054      -0.00785704       0.02809194
H        6.95818093       7.32071450      11.22918390       12      -1.08604300       0.14132376       0.22038163
H        1.74440775       7.27269287       0.64130522       13       1.35457957      -0.43465501      -0.29767719
H        5.48864680       8.49621465       9.50215946       14      -0.11392902      -0.12026303       0.24972759
H        3.23308622       6.09573972       2.35620541       15       0.08120236       0.27038494      -0.54657131
H        2.98143812       8.61535503       9.94615162       16      -0.08228253      -0.10546143       0.20465088
H        5.70296138       5.96419387       1.83529501       17      -0.37519321       0.25125298       0.08393908
H        0.51472696       2.86683708       3.30285994       18      -0.89612222       0.36243320       0.53482938
H        8.21654315      11.69852534       8.59268272       19       0.44429013      -0.24846582      -0.56322807
H        1.23803161       4.57937873       5.06845514       20       0.27929473      -0.20858595       0.07905301
H        7.47328956      10.06055321       6.79103653       21       0.85116529       0.06200121       0.01059357
H        7.61750511       5.85363976       6.30388255       22       0.21239811      -0.33007294      -0.37888351
H        1.10423413       8.72524366       5.62052941       23      -0.49523562      -0.73459762      -0.88913953
C        4.13959118       2.19194090       3.14560917       24      -0.26677507      -0.17882726      -0.40069380
C        4.55714570      12.37991055       8.79093165       25      -0.06844538       0.20259035      -1.37242150
C        5.14547096      10.53443518       3.51222817       26       0.34624150       0.71238303      -0.06458843
C        3.54181865       4.04745673       8.35732210       27       0.92879218      -0.83822668      -1.33447862
C        6.88292043      10.08006624       2.11941029       28       0.32380056       2.04367423      -0.79394871
C        1.78799336       4.47289811       9.74121277       29       0.03974843      -1.13472009       0.87614501
C        7.06189945       8.86853150       2.67167846       30      -0.53566551      -1.84121799       1.62269330
C        1.64674204       5.70893239       9.16384246       31      -0.03142211       0.39372674      -0.22877632
C        6.17399269       8.52149552       3.76426089       32       3.65410376      -2.98611164      -1.95246506
C        2.47674893       6.05765255       8.10177360       33       0.08646554      -0.07737292       0.37996092
C        3.44356536       3.04567367       0.66135228       34       0.39030749       0.76022011       0.05471852
C        5.27736088      11.49952192      11.22853280       35      -1.42723608       0.59735554      -1.90714872
C        5.84427363       7.38137662      11.35062110       36       0.42444482       0.27394497      -0.87893522
C        2.87190539       7.16355307       0.49709512       37      -4.29976654       0.29439950       1.48762083
C        5.05010461       8.04143918      10.39408794       38      -0.46192172      -0.11041065       0.34148121
C        3.62701761       6.55810037       1.43479080       39       1.66421080      -1.33157492       1.89811206
C        3.65716274       8.09674446      10.62488636       40       1.89107847      -0.51651448       0.19839883
C        4.98990531       6.51848673       1.21079012       41       0.95099640      -0.61802971       0.08918492
C        5.75854213       3.92133867       4.36455315       42       4.00556850       0.09681252       0.17709509
C        2.89120971      10.60749406       7.49722826       43       0.06756306       1.87635052       1.30717540
C        7.98871178       3.40998991       3.92146560       44       1.91213202      -0.03984589      -0.01081021
C        0.70926389      11.16807454       7.95215393       45       0.18919241      -0.20271753       0.09098794
C        8.44856840       4.31591638       4.89816321       46      -2.46618629       0.63406491      -0.06942602
C        0.31929266      10.23213603       6.96680644       47      -1.19121706       0.45160031       0.47991380
C        7.40331131       5.07770287       5.54599200       48       3.26375866      -0.31004286       0.12415153
C        1.28325809       9.51968633       6.29206670       49       0.93435436       0.89543110       1.03401721
S        3.88954307      11.60527763       4.16871935       50       0.52371675      -0.50421709       0.03691438
S        4.79819775       2.98017864       7.62421939       51      -0.84096396      -0.46780947       0.97452575
S        2.72995269       2.23812070       1.99472281       52      -0.50649941      -0.69480675       0.60943413
S        5.94740981      12.38277008       9.82032304       53       0.60498565       0.05606851       1.26955438
S        4.13622161       3.67634991       4.11243639       54      -1.89059687       0.43298411      -0.27830738
S        4.58985115      10.83461955       7.81434106       55       0.45861983       0.04692663       0.42716891
N        5.98121166      11.01919114       2.52687182       56      -1.27757072      -2.18610358       1.76065969
N        2.74608397       3.60371521       9.31793539       57      -0.58694339       0.48642433       0.45510042
N        4.77779486       3.05084758       0.56005299       58       0.26821047       0.03913757      -0.51703191
N        3.87578276      11.49991755      11.34046394       59       3.51142335       1.17682374      -2.13989115
N        6.70403984       3.18212459       3.63560043       60      -1.57717764       1.40617466       1.58549082
N        2.01614539      11.36332996       8.24006617       61      -0.31312659      -1.02042556      -1.16542125
N        5.26269605       9.30962001       4.16564100       62      -2.04768276       3.55978918      -0.40637177
N        3.42919200       5.20005625       7.68487086       63      -0.27703595       0.37586558       0.37885869
N        3.17047428       7.47618458      11.72113037       64      -0.89690340       0.09578226      -0.68754214
N        5.59698482       7.08628189       0.11483556       65      -1.44011939       0.21225844       1.06828475
N        6.14585776       4.90129129       5.29923531       66      -2.83571124      -1.83759880      -1.75557745
N        2.61384888       9.73861439       6.55801306       67      -1.12291837      -0.85797018      -0.59299195
Cl       7.82697500       2.04207037       0.69985079       68       0.00361564       0.09575623       0.13355279
Cl       0.89227295      12.52631131      11.13197355       69      -0.09079468      -0.13461469      -0.09571259
Cl       2.92835112       6.81885989       4.85888006       70       0.36998203       0.10530461       0.23108232
Cl       5.74689599       7.75711956       7.01559568       71      -0.38104466      -0.08903785      -0.27670571
Cl       8.25647139       5.70081373       1.75997781       72      -0.09364842       0.02860375      -0.48180214
Cl       0.44557142       8.85157822      10.14012048       73       0.06776112      -0.01619235       0.34472486
74
Lattice="8.242401 0.0 0.0 -0.06419810486895985 10.863171925833644 0.0 0.5244177032269756 3.7217850836290642 11.862336077690532" Properties=species:S:1:pos:R:3:spacegroup_kinds:I:1:forces:R:3 spacegroup="P 1" unit_cell=conventional occupancy="_JSON {\"0\": {\"Cu\": 1}, \"1\": {\"Cu\": 1}, \"2\": {\"Cu\": 1}, \"3\": {\"Cu\": 1}, \"4\": {\"Cu\": 1}, \"5\": {\"Cu\": 1}, \"6\": {\"H\": 1}, \"7\": {\"H\": 1}, \"8\": {\"H\": 1}, \"9\": {\"H\": 1}, \"10\": {\"H\": 1}, \"11\": {\"H\": 1}, \"12\": {\"H\": 1}, \"13\": {\"H\": 1}, \"14\": {\"H\": 1}, \"15\": {\"H\": 1}, \"16\": {\"H\": 1}, \"17\": {\"H\": 1}, \"18\": {\"H\": 1}, \"19\": {\"H\": 1}, \"20\": {\"H\": 1}, \"21\": {\"H\": 1}, \"22\": {\"H\": 1}, \"23\": {\"H\": 1}, \"24\": {\"C\": 1}, \"25\": {\"C\": 1}, \"26\": {\"C\": 1}, \"27\": {\"C\": 1}, \"28\": {\"C\": 1}, \"29\": {\"C\": 1}, \"30\": {\"C\": 1}, \"31\": {\"C\": 1}, \"32\": {\"C\": 1}, \"33\": {\"C\": 1}, \"34\": {\"C\": 1}, \"35\": {\"C\": 1}, \"36\": {\"C\": 1}, \"37\": {\"C\": 1}, \"38\": {\"C\": 1}, \"39\": {\"C\": 1}, \"40\": {\"C\": 1}, \"41\": {\"C\": 1}, \"42\": {\"C\": 1}, \"43\": {\"C\": 1}, \"44\": {\"C\": 1}, \"45\": {\"C\": 1}, \"46\": {\"C\": 1}, \"47\": {\"C\": 1}, \"48\": {\"C\": 1}, \"49\": {\"C\": 1}, \"50\": {\"S\": 1}, \"51\": {\"S\": 1}, \"52\": {\"S\": 1}, \"53\": {\"S\": 1}, \"54\": {\"S\": 1}, \"55\": {\"S\": 1}, \"56\": {\"N\": 1}, \"57\": {\"N\": 1}, \"58\": {\"N\": 1}, \"59\": {\"N\": 1}, \"60\": {\"N\": 1}, \"61\": {\"N\": 1}, \"62\": {\"N\": 1}, \"63\": {\"N\": 1}, \"64\": {\"N\": 1}, \"65\": {\"N\": 1}, \"66\": {\"N\": 1}, \"67\": {\"N\": 1}, \"68\": {\"Cl\": 1}, \"69\": {\"Cl\": 1}, \"70\": {\"Cl\": 1}, \"71\": {\"Cl\": 1}, \"72\": {\"Cl\": 1}, \"73\": {\"Cl\": 1}}" energy=-464.0162658691406 free_energy=-464.0162658691406 stress="0.0022298558615148067 -0.0011063228594139218 -0.004315981175750494 -0.0011063228594139218 -0.0033940342254936695 0.011934084817767143 -0.004315981175750494 0.011934084817767143 -0.0003622057556640357" pbc="T T T"
Cu       5.80618811       2.09191129       2.00657359        0       0.67819816       0.09939629      -0.14527124
Cu       2.89341165      12.44398065       9.84765539        1      -1.00993764       0.15781780       0.29969385
Cu       4.09129815       8.78438938       5.60061775        2      -0.29501089      -0.38574260       0.65201104
Cu       4.58666635       5.75800195       6.15047134        3       0.11362830       0.54059643       0.00903250
Cu       0.72906692       4.00441515       0.31202028        4      -0.42708844       0.20846198      -0.00333232
Cu       7.98775588      10.54259812      11.51317388        5       0.74766755      -0.19796918       0.15607721
H        7.52326083      10.44999337       1.34709105        6       0.77447730       0.30157077      -1.05714726
H        1.16579160       4.15455879      10.58282555        7       0.33844289       0.04394874      -0.53657687
H        7.82885150       8.17016992       2.30191405        8      -0.86923528       0.58248729       0.44882601
H        0.94399278       6.36479014       9.60819352        9      -0.39333129       0.49226958      -0.14191222
H        6.26497249       7.53783299       4.28789592       10       0.12833555       1.12703598      -0.61032927
H        2.45367979       7.01143777       7.59717185       11      -0.07909550       0.47748834      -0.22439986
H        6.97934019       7.31322916      11.22119974       12      -0.95890063       0.24689645       0.07607952
H        1.72787772       7.25294385       0.66833649       13       2.12364888      -0.32650280      -0.66931409
H        5.51826416       8.51181783       9.53111706       14      -0.62190449      -0.32366097       0.58585495
H        3.20676950       6.07118808       2.35750242       15       0.34958678       0.78596431      -1.32767284
H        2.98834688       8.62860796       9.96197478       16      -0.18504687      -0.15829405       0.12225673
H        5.73028279       5.97936982       1.81448668       17      -0.19350497      -0.08956929       0.51463640
H        0.51812289       2.83782295       3.28802796       18      -1.12922800       0.51367962       0.65675104
H        8.21911285      11.67089873       8.60899932       19       0.05083752       0.04064811      -0.20553598
H        1.21550435       4.57966746       5.04573784       20       0.29239249      -0.20568985       0.14779918
H        7.45719735      10.06932601       6.78443987       21       0.67147881      -0.08941160      -0.02915841
H        7.59240443       5.85196998       6.33285291       22       0.31106806      -0.34767231      -0.40364009
H        1.07901951       8.71096372       5.62073081       23      -0.01947898       0.00509237      -0.28721553
C        4.16630159       2.17165125       3.17186199       24      -0.71547443       0.29967517      -0.41268599
C        4.53578921      12.40749817       8.78731807       25       0.85151261      -0.13176620      -1.09823060
C        5.15407915      10.52432211       3.48633044       26      -0.70402056       1.05288446       1.04920852
C        3.51601988       4.03085345       8.34839198       27       2.12640476      -1.28368390      -1.47598052
C        6.90256429      10.05649212       2.10190391       28      -1.62464035       4.66292191      -0.51898199
C        1.79058369       4.46096545       9.71937620       29       0.24344924      -1.14779973       1.23424649
C        7.04556036       8.89251498       2.65428056       30       0.58553219      -4.56610012       2.30134201
C        1.65345983       5.69764273       9.15987547       31       0.02749312       0.80144399      -0.56381315
C        6.18610714       8.54435985       3.77038191       32       3.49898863      -3.48377132      -1.78525090
C        2.48112327       6.06613479       8.10215100       33       0.61511874      -1.43342698       0.64160317
C        3.44921914       3.05092817       0.66477120       34       0.86303210       0.38282084       0.03247532
C        5.30269986      11.51355241      11.22768904       35      -2.12544107       0.55961692      -1.57742047
C        5.87344265       7.39900094      11.32091356       36      -0.77103680      -0.91293299       0.89064342
C        2.90111900       7.18642278       0.46992651       37      -6.78862238      -1.03616035       3.91287327
C        5.04034040       8.02884313      10.41369945       38       0.36133724       0.82501656      -1.13954449
C        3.62083934       6.57565399       1.42485250       39       2.56969476      -2.21600509       2.96025372
C        3.64777619       8.08044255      10.62830837       40       2.03513145      -0.48569649       0.33358806
C        5.00059234       6.51753109       1.22467041       41      -0.17238787      -0.13123079      -0.36039138
C        5.76848690       3.93432734       4.38722593       42       3.00939941      -0.57270885      -0.38054276
C        2.88401574      10.62257349       7.52284137       43       0.46965289       1.74181724       1.11927640
C        7.97127828       3.38307132       3.89821329       44       1.94114542       0.66250598       0.95167559
C        0.70142621      11.15201906       7.98005184       45      -0.45940626      -0.74484843      -0.88516068
C        8.42177509       4.31261560       4.91175520       46      -2.16772485       0.01620495      -0.91215265
C        0.29507910      10.21973100       6.97366588       47       0.23191127       0.54269242       0.64026260
C        7.39637649       5.07858366       5.56712761       48       3.68846583      -0.43768406       0.06574687
C        1.30183248       9.51949088       6.30623889       49      -0.30360296       0.57834500       0.69162118
S        3.87224883      11.59502964       4.17479579       50       0.74014068      -0.56719774      -0.09304848
S        4.82119547       2.95573729       7.60111752       51      -1.25457931      -0.24735746       1.28624380
S        2.74792254       2.23603983       1.99040283       52      -0.46386689      -0.80818117       0.96218103
S        5.97025822      12.38308660       9.84873338       53       0.08325216       0.27341932       0.49286151
S        4.12272539       3.70489099       4.13492955       54      -1.40925157      -0.02532203      -0.47613662
S        4.59939664      10.82826334       7.83718945       55       0.08582729       0.28608805       0.54909521
N        5.95277475      11.01418042       2.54295809       56       0.51168889      -2.47547388       0.13958250
N        2.76132260       3.59935344       9.32741005       57      -1.07733679       0.07038987       0.53453583
N        4.77235712       3.04069674       0.54273090       58       1.32677150       0.45773762      -0.95185584
N        3.85698077      11.51796095      11.34500265       59       5.28509998       2.39872313      -4.26988888
N        6.67878207       3.15672690       3.64441229       60      -0.99682570       1.56517518       1.52104688
N        1.98926664      11.36289197       8.24478921       61       0.56411004      -0.82509869      -0.69767696