91
Lattice="4.27032167 0.0 0.0 1.1847847538355547 23.380220403932736 0.0 1.1081724755124904 11.63583371689372 20.276140520061155" Properties=species:S:1:pos:R:3:spacegroup_kinds:I:1:forces:R:3 spacegroup="P 1" unit_cell=conventional occupancy="_JSON {\"0\": {\"Al\": 1}, \"1\": {\"H\": 1}, \"2\": {\"H\": 1}, \"3\": {\"H\": 1}, \"4\": {\"H\": 1}, \"5\": {\"H\": 1}, \"6\": {\"H\": 1}, \"7\": {\"H\": 1}, \"8\": {\"H\": 1}, \"9\": {\"H\": 1}, \"10\": {\"H\": 1}, \"11\": {\"H\": 1}, \"12\": {\"H\": 1}, \"13\": {\"H\": 1}, \"14\": {\"H\": 1}, \"15\": {\"H\": 1}, \"16\": {\"H\": 1}, \"17\": {\"H\": 1}, \"18\": {\"H\": 1}, \"19\": {\"H\": 1}, \"20\": {\"H\": 1}, \"21\": {\"H\": 1}, \"22\": {\"H\": 1}, \"23\": {\"H\": 1}, \"24\": {\"H\": 1}, \"25\": {\"H\": 1}, \"26\": {\"H\": 1}, \"27\": {\"H\": 1}, \"28\": {\"C\": 1}, \"29\": {\"C\": 1}, \"30\": {\"C\": 1}, \"31\": {\"C\": 1}, \"32\": {\"C\": 1}, \"33\": {\"C\": 1}, \"34\": {\"C\": 1}, \"35\": {\"C\": 1}, \"36\": {\"C\": 1}, \"37\": {\"C\": 1}, \"38\": {\"C\": 1}, \"39\": {\"C\": 1}, \"40\": {\"C\": 1}, \"41\": {\"C\": 1}, \"42\": {\"C\": 1}, \"43\": {\"C\": 1}, \"44\": {\"C\": 1}, \"45\": {\"C\": 1}, \"46\": {\"C\": 1}, \"47\": {\"C\": 1}, \"48\": {\"C\": 1}, \"49\": {\"C\": 1}, \"50\": {\"C\": 1}, \"51\": {\"C\": 1}, \"52\": {\"C\": 1}, \"53\": {\"C\": 1}, \"54\": {\"C\": 1}, \"55\": {\"C\": 1}, \"56\": {\"C\": 1}, \"57\": {\"C\": 1}, \"58\": {\"C\": 1}, \"59\": {\"C\": 1}, \"60\": {\"C\": 1}, \"61\": {\"C\": 1}, \"62\": {\"C\": 1}, \"63\": {\"C\": 1}, \"64\": {\"C\": 1}, \"65\": {\"C\": 1}, \"66\": {\"C\": 1}, \"67\": {\"C\": 1}, \"68\": {\"C\": 1}, \"69\": {\"C\": 1}, \"70\": {\"C\": 1}, \"71\": {\"C\": 1}, \"72\": {\"C\": 1}, \"73\": {\"S\": 1}, \"74\": {\"S\": 1}, \"75\": {\"S\": 1}, \"76\": {\"O\": 1}, \"77\": {\"O\": 1}, \"78\": {\"O\": 1}, \"79\": {\"O\": 1}, \"80\": {\"O\": 1}, \"81\": {\"O\": 1}, \"82\": {\"O\": 1}, \"83\": {\"O\": 1}, \"84\": {\"O\": 1}, \"85\": {\"O\": 1}, \"86\": {\"O\": 1}, \"87\": {\"O\": 1}, \"88\": {\"O\": 1}, \"89\": {\"O\": 1}, \"90\": {\"O\": 1}}" energy=-632.4951782226562 free_energy=-632.4951782226562 stress="-0.0034787668846547604 3.811793067143299e-05 -1.392438889524783e-06 3.811793067143299e-05 -0.0032471681479364634 9.45173524087295e-05 -1.392438889524783e-06 9.45173524087295e-05 -0.0031719496473670006" pbc="T T T"
Al       1.35625285      17.50278342      10.14389102        0      -0.02928605      -0.01457646       0.00256453
H        3.28036755      15.55837433      13.70555270        1       0.03401306      -0.03656834      -0.01558116
H        3.16682425      15.44015173      16.17544952        2      -0.00885670      -0.03276455       0.00890977
H        4.53816597      15.72610839      18.03729862        3      -0.01567659       0.02829856      -0.02997267
H        3.57478334       4.05910514       0.21650406        4      -0.01203312       0.02309062       0.01982922
H        3.46487174      21.77704237       5.07944952        5      -0.02432095      -0.02981967      -0.02371497
H        2.18159226      23.61229769       4.55494367        6      -0.01476472      -0.00084079       0.01792555
H        1.12701437       2.37347709       3.35900917        7       0.00433271       0.01554998       0.01334494
H        2.37145802       3.69792836       2.13020131        8      -0.00725257      -0.03818122      -0.01877663
H        3.45394384      21.56527315      10.03945329        9       0.03050050       0.00518873       0.06797472
H        3.38327606      23.76428231       8.90571080       10      -0.00927198       0.05576897       0.04239212
H        4.70584729      25.19874282       7.66887723       11      -0.01445649      -0.03832196      -0.00675726
H        3.67261915       3.95178199       6.45841934       12      -0.00916725      -0.00808468      -0.02195525
H        3.23499543      11.00067835       8.94016466       13      -0.02767853      -0.00279798       0.03447583
H        1.66740399       9.76031946       7.74742974       14       0.02526490       0.00499338      -0.07075623
H        1.51868955       7.64693103       6.49556882       15       0.01143804       0.00652529      -0.02677378
H        2.63085428       5.82217432       5.86157193       16       0.00155922      -0.01590601       0.02166635
H        3.20937425      15.41810047       6.66539372       17       0.03258099      -0.01160242      -0.00488675
H        2.89098450      13.34941965       5.33910902       18      -0.01234080       0.01261332      -0.05746430
H        4.07623168      11.45380693       4.59795765       19      -0.00859340       0.00408426       0.04405684
H        3.94987447       9.33224838       3.36080921       20      -0.00012816      -0.02963754      -0.01936233
H        3.50448809      19.73760213      16.37751903       21      -0.02884387      -0.03064825      -0.03890809
H        2.17683750      19.32874820      18.22387435       22       0.00783765      -0.03995502       0.00900911
H        1.20402917       7.65143222       0.40483394       23       0.02120017      -0.03658508      -0.00140311
H        2.61671354       7.98718793       2.14879009       24      -0.00371046       0.05895633      -0.03373426
H        1.38684911      13.74369439      11.37131398       25      -0.04636728       0.00619654       0.06152587
H        1.40182261      20.44075375      12.73763456       26      -0.09439214       0.02922006      -0.05723742
H        1.33053900      18.26407881       6.29830426       27      -0.06030552      -0.07532936       0.00205132
C        3.48419013      17.70450733      12.14433128       28       0.07001531       0.02667520       0.05567104
C        3.48269162      15.67486331       9.30647710       29      -0.08200690       0.08504248       0.18074271
C        3.48928797      19.13537653       8.96340942       30      -0.01537577      -0.07933563      -0.04151326
C        3.29935646      16.47464305      14.29901234       31      -0.04518693      -0.05445004       0.03010423
C        3.24509278      16.41188879      15.68960559       32       0.03338005      -0.01541670       0.03579605
C        4.02184669      16.49515635      18.61338991       33      -0.01969767       0.02579783      -0.00300736
C        4.10332850      16.47781191      20.00149544       34      -0.00181261       0.00133410      -0.01138402
C        3.40924320      20.51580599       6.80649322       35       0.23013151       0.20402044       0.06570151
C        3.38749189      21.75369403       6.16536858       36      -0.03801069       0.16747382       0.00908926
C        2.78712159      24.41888622       4.96817916       37       0.03127177       0.05116589       0.04770087
C        2.86612863      25.62910302       4.28974440       38       0.00737032       0.00740996       0.02293546
C        3.39314641      17.70584577      13.64237814       39      -0.04573733       0.06897904      -0.02614966
C        3.29982251      17.58120033      16.46944248       40      -0.03337726      -0.15315451      -0.03833905
C        3.34374181      17.52842392      17.94326823       41      -0.02256310       0.01138296       0.02015659
C        2.40094969       5.85368978       0.49742888       42       0.03097699      -0.01211440       0.06454191
C        2.48768661       5.84180115       1.97071226       43       0.00638923       0.07593580      -0.00067437
C        2.44967457       4.63446365       2.68106568       44       0.00039108       0.00278218      -0.02540140
C        3.42055135      21.61978911       8.95039756       45      -0.04916073       0.07033903      -0.05217528
C        3.39145524      22.85568176       8.30695553       46       0.02905137       0.01854092       0.00835778
C        4.15320310      25.32431189       6.73701751       47      -0.00847600      -0.00826345      -0.04568842
C        4.23888073      26.53094996       6.05161703       48      -0.03259468       0.01762488      -0.02880474
C        3.32825196      13.12743926       9.17299263       49       0.19247515      -0.17321666      -0.14103673
C        3.16331988      11.95964146       8.42984594       50      -0.03774029      -0.01001342      -0.17761984
C        2.18531225       9.66543101       6.79058749       51       0.00936152      -0.02143988      -0.01216553
C        2.10806770       8.46868773       6.08698756       52      -0.00720713       0.03411359       0.00542869
C        3.42299746      20.43189313       8.21218261       53      -0.04710136      -0.07908592      -0.06855967
C        3.37985805      22.94321710       6.90337535       54      -0.05478239      -0.04946874       0.09285043
C        3.43028312      24.24191715       6.20556901       55      -0.02553834       0.00681125       0.00610191
C        2.41226168       3.32950150       4.81342030       56       0.01613683      -0.01623558      -0.00399541
C        2.49537221       4.60876787       4.08248236       57      -0.00573988      -0.03154007       0.03154474
C        2.59720750       5.82545183       4.77210018       58      -0.00922464       0.02837925       0.03114505
C        3.18992706      14.44409335       7.16183434       59      -0.04159192       0.03242138      -0.07602675
C        3.01879771      13.27742433       6.41778108       60       0.03580904       0.02010838      -0.03667361
C        3.49049577      10.62936438       5.00716597       61      -0.00511239      -0.03434928      -0.01040656
C        3.41797497       9.42913727       4.30701597       62      -0.03750511       0.01685604       0.08034180
C        3.42963044      18.87575603      14.42138584       63       0.21122602      -0.06762771       0.12719718
C        3.38682846      18.81145276      15.81294807       64      -0.03665595       0.04953378       0.14839050
C        2.74572946      18.53840417      18.71628997       65      -0.01021920      -0.03547939      -0.00414286
C        2.82569178      18.51639315      20.10350878       66      -0.03324001       0.04050989      -0.01346210
C        3.33840501      14.38761683       8.55084726       67      -0.04913687       0.03322977       0.06119812
C        3.00380743      12.01752772       7.03924329       68      -0.03641156       0.04942471       0.07245085
C        2.88209272      10.76722065       6.26638708       69      -0.01102474       0.00564680      -0.01932202
C        2.72712916       8.32414769       4.83345391       70      -0.00965746      -0.01356494       0.00067109
C        2.64315457       7.05125684       4.09196757       71       0.00077295       0.01252967      -0.04860230
C        2.58899202       7.04317624       2.68996004       72      -0.01711104      -0.09008585       0.01709909
S        3.72754180      12.90391269      10.89895033       73      -0.27082855       0.42907119      -0.68760115
S        3.76447985      20.48616230      13.72203326       74      -0.19814727      -0.83949369       0.12435330
S        3.69972035      19.09961555       5.75983155       75      -0.27304170       0.34192365       0.82453698
O        2.50496588      18.33777858       8.82861055       76      -0.00166166       0.02713525       0.02734824
O        2.51142849      18.22441260      11.51241870       77      -0.12406416       0.04030900      -0.08009204
O        2.51862515      15.97480651      10.08960727       78       0.10297326      -0.03802481      -0.12447613
O        4.50746638      18.98826945       9.70445294       79       0.02046306      -0.01312524      -0.00300525
O        4.51916450      16.36157393       9.06269661       80      -0.02506883      -0.02310012       0.01930240
O        4.50902868      17.13679662      11.66139143       81       0.07573213      -0.00341953      -0.06043293
O        2.56397241      13.13244435      11.76373156       82      -0.83343780       0.00647600       0.72476327
O        4.36763775      11.61925051      11.04298286       83       0.48116690      -1.04494286       0.13640697
O        4.67776023      14.09373158      11.18175491       84       0.67206466       0.67327893       0.19062656
O        2.57572023      21.08541047      13.11526673       85      -0.91264814       0.64844787      -0.37972027
O        4.41779972      21.27729419      14.73817502       86       0.44171405       0.62183714       0.74061859
O        4.68346096      20.14061755      12.52370832       87       0.75607455      -0.13491368      -0.71109611
O        2.49831435      18.29136783       5.54790597       88      -0.84930211      -0.60689467      -0.35865876
O        4.34793646      19.57227359       4.56412561       89       0.53888488       0.38238731      -1.05862427
O        4.61073092      18.21022478       6.65146686       90       0.62208694      -0.49504584       0.42724240
91
Lattice="4.27032167 0.0 0.0 1.1847847538355547 23.380220403932736 0.0 1.1081724755124904 11.63583371689372 20.276140520061155" Properties=species:S:1:pos:R:3:spacegroup_kinds:I:1:forces:R:3 spacegroup="P 1" unit_cell=conventional occupancy="_JSON {\"0\": {\"Al\": 1}, \"1\": {\"H\": 1}, \"2\": {\"H\": 1}, \"3\": {\"H\": 1}, \"4\": {\"H\": 1}, \"5\": {\"H\": 1}, \"6\": {\"H\": 1}, \"7\": {\"H\": 1}, \"8\": {\"H\": 1}, \"9\": {\"H\": 1}, \"10\": {\"H\": 1}, \"11\": {\"H\": 1}, \"12\": {\"H\": 1}, \"13\": {\"H\": 1}, \"14\": {\"H\": 1}, \"15\": {\"H\": 1}, \"16\": {\"H\": 1}, \"17\": {\"H\": 1}, \"18\": {\"H\": 1}, \"19\": {\"H\": 1}, \"20\": {\"H\": 1}, \"21\": {\"H\": 1}, \"22\": {\"H\": 1}, \"23\": {\"H\": 1}, \"24\": {\"H\": 1}, \"25\": {\"H\": 1}, \"26\": {\"H\": 1}, \"27\": {\"H\": 1}, \"28\": {\"C\": 1}, \"29\": {\"C\": 1}, \"30\": {\"C\": 1}, \"31\": {\"C\": 1}, \"32\": {\"C\": 1}, \"33\": {\"C\": 1}, \"34\": {\"C\": 1}, \"35\": {\"C\": 1}, \"36\": {\"C\": 1}, \"37\": {\"C\": 1}, \"38\": {\"C\": 1}, \"39\": {\"C\": 1}, \"40\": {\"C\": 1}, \"41\": {\"C\": 1}, \"42\": {\"C\": 1}, \"43\": {\"C\": 1}, \"44\": {\"C\": 1}, \"45\": {\"C\": 1}, \"46\": {\"C\": 1}, \"47\": {\"C\": 1}, \"48\": {\"C\": 1}, \"49\": {\"C\": 1}, \"50\": {\"C\": 1}, \"51\": {\"C\": 1}, \"52\": {\"C\": 1}, \"53\": {\"C\": 1}, \"54\": {\"C\": 1}, \"55\": {\"C\": 1}, \"56\": {\"C\": 1}, \"57\": {\"C\": 1}, \"58\": {\"C\": 1}, \"59\": {\"C\": 1}, \"60\": {\"C\": 1}, \"61\": {\"C\": 1}, \"62\": {\"C\": 1}, \"63\": {\"C\": 1}, \"64\": {\"C\": 1}, \"65\": {\"C\": 1}, \"66\": {\"C\": 1}, \"67\": {\"C\": 1}, \"68\": {\"C\": 1}, \"69\": {\"C\": 1}, \"70\": {\"C\": 1}, \"71\": {\"C\": 1}, \"72\": {\"C\": 1}, \"73\": {\"S\": 1}, \"74\": {\"S\": 1}, \"75\": {\"S\": 1}, \"76\": {\"O\": 1}, \"77\": {\"O\": 1}, \"78\": {\"O\": 1}, \"79\": {\"O\": 1}, \"80\": {\"O\": 1}, \"81\": {\"O\": 1}, \"82\": {\"O\": 1}, \"83\": {\"O\": 1}, \"84\": {\"O\": 1}, \"85\": {\"O\": 1}, \"86\": {\"O\": 1}, \"87\": {\"O\": 1}, \"88\": {\"O\": 1}, \"89\": {\"O\": 1}, \"90\": {\"O\": 1}}" energy=-632.5392456054688 free_energy=-632.5392456054688 stress="-0.003311266889795661 4.3369429477024823e-05 0.00018191308481618762 4.3369429477024823e-05 -0.002954669063910842 -3.681354655782343e-06 0.00018191308481618762 -3.681354655782343e-06 -0.0029132626950740814" pbc="T T T"
Al       1.35363765      17.50378280      10.14280886        0      -0.01244796      -0.02306945      -0.00168661
H        3.27973947      15.55855059      13.70487301        1       0.03157173      -0.04099114      -0.02600549
H        3.16495727      15.44014635      16.17542178        2      -0.00446834      -0.02484189      -0.00116661
H        4.53563824      15.72717028      18.03541712        3      -0.00156017       0.01114535      -0.04147736
H        3.57209539       4.05919018       0.21584451        4      -0.00074963       0.01530206       0.02244990
H        3.46400863      21.77836213       5.07809276        5      -0.03278022      -0.02886371      -0.00680955
H        2.18028118      23.61302172       4.55363500        6       0.01113990       0.03292365       0.03778435
H        1.12647253       2.37434757       3.35787627        7      -0.00029516       0.01133477       0.01060832
H        2.36896509       3.69809542       2.12905316        8      -0.00519664      -0.01988144      -0.01014470
H        3.45273256      21.56645598      10.03919903        9       0.02478103       0.01311576       0.03032103
H        3.38190818      23.76550491       8.90621501       10      -0.00861876       0.04137554       0.01985383
H        4.70389766      25.19802668       7.66855211       11      -0.03320978      -0.02852092      -0.04760580
H        3.67117638       3.95215752       6.45647833       12      -0.00671388      -0.00315718      -0.01449850
H        3.23438699      11.00157748       8.93915786       13      -0.03390589      -0.00072229       0.01792377
H        1.66670831       9.76178943       7.74529092       14       0.01242918       0.00323173      -0.04596451
H        1.51831402       7.64801991       6.49470301       15       0.00095929       0.00023640      -0.02017567
H        2.62878713       5.82270420       5.86155166       16       0.00309038      -0.01048505      -0.00613761
H        3.20914076      15.41828740       6.66378742       17       0.03417246       0.03650083      -0.03017179
H        2.88909714      13.34956316       5.33678072       18      -0.00888530       0.00806008      -0.04546353
H        4.07457643      11.45360941       4.59783566       19       0.02101885       0.04060049       0.02190764
H        3.94790256       9.33262325       3.35908229       20      -0.00405858      -0.02396652      -0.00859685
H        3.50245490      19.73677748      16.37622060       21      -0.02518423       0.01575960       0.00601307
H        2.17543493      19.32896105      18.22322279       22      -0.01605147      -0.01276024      -0.00706255
H        1.20358302       7.65156768       0.40379624       23       0.00948474      -0.01716472       0.00854461
H        2.61555030       7.98918850       2.14706025       24      -0.00489467      -0.00207168      -0.00028430
H        1.38603805      13.74582477      11.37119067       25      -0.00208363      -0.02031410       0.06974079
H        1.40030946      20.44101897      12.73546810       26      -0.07748348       0.03746385      -0.04518706
H        1.32874801      18.26416852       6.30023379       27      -0.03646799      -0.07806031      -0.01286265
C        3.48525058      17.70655053      12.14312084       28      -0.06183799       0.06369427       0.01455617
C        3.48065825      15.67718575       9.30689518       29       0.00643993      -0.06649894       0.03015339
C        3.48814063      19.13421676       8.96253184       30       0.02757591       0.00494790      -0.02634567
C        3.29794048      16.47481327      14.29775962       31      -0.04694140      -0.03573835       0.04152251
C        3.24397233      16.41171956      15.68864220       32       0.02114836      -0.04919478      -0.00073816
C        4.02100194      16.49606651      18.61166156       33      -0.04583012       0.06097998       0.05257557
C        4.10263034      16.47869307      20.00060714       34      -0.01893519       0.01584869      -0.02942247
C        3.41197359      20.51847774       6.80774590       35       0.16749881       0.19099946      -0.01887475
C        3.38468961      21.75643190       6.16430258       36       0.00945006       0.08558127       0.01238404
C        2.78644307      24.42065095       4.96791272       37      -0.02936342      -0.01722205      -0.01199460
C        2.86495839      25.62969105       4.28876061       38       0.01632628       0.03405140       0.02084136
C        3.39136979      17.70760750      13.64197458       39      -0.01287358      -0.02635652      -0.05434280
C        3.29722099      17.58047745      16.46757832       40      -0.02753424      -0.13197084       0.07910842
C        3.34195726      17.52978400      17.94272414       41      -0.01867852      -0.03590639      -0.01428440
C        2.40015367       5.85469493       0.49723170       42       0.03240507      -0.00419814       0.00015886
C        2.48703292       5.84389622       1.96955138       43      -0.00526354      -0.04058500       0.02573332
C        2.44780683       4.63489473       2.68055770       44       0.00388394       0.03503779      -0.07516084
C        3.41849968      21.62205927       8.94904085       45      -0.05421596      -0.02813372      -0.01057073
C        3.38954002      22.85713440       8.30585367       46       0.03700336       0.02734466       0.05283032
C        4.15159789      25.32416154       6.73488964       47       0.03665511       0.03548785       0.01957336
C        4.23679758      26.53182408       6.05031639       48      -0.01831247      -0.00050627      -0.01614302
C        3.33093010      13.12643519       9.17141574       49       0.13920176      -0.05939957      -0.19114840
C        3.16126365      11.95981139       8.42689901       50       0.01078953      -0.01249054      -0.03782316
C        2.18458533       9.66589151       6.78948146       51       0.02630098       0.02163263      -0.02531271
C        2.10665481       8.47010130       6.08621923       52       0.01065254      -0.00624889      -0.03134057
C        3.42043979      20.43139436       8.21106334       53      -0.00368059       0.01408160       0.01901408
C        3.37897243      22.94332367       6.90283665       54      -0.07784057       0.05152586       0.05000437
C        3.42900142      24.24309955       6.20420222       55      -0.02558463      -0.04467008       0.04012053
C        2.41104459       3.33029738       4.81238698       56       0.00072822      -0.02304354      -0.01265534
C        2.49347192       4.60910698       4.08141576       57       0.00334069       0.00839332       0.05067630
C        2.59583832       5.82664020       4.77125300       58      -0.01760420       0.02217307       0.02208276
C        3.19003478      14.44559252       7.15908812       59      -0.06090451      -0.02932598       0.01942162
C        3.01724143      13.27842347       6.41579767       60       0.04434384       0.03822247      -0.01590313
C        3.49021823      10.62989315       5.00632364       61      -0.03841694      -0.05067842       0.01967303
C        3.41658117       9.43018076       4.30598782       62      -0.03672063      -0.02161518       0.06888849
C        3.43183516      18.87385706      14.42231997       63       0.16677447       0.02049973       0.16683918
C        3.38473383      18.81086387      15.81528894       64      -0.01766802       0.03618284      -0.01170586
C        2.74318812      18.53924335      18.71524972       65       0.02290231      -0.06175365       0.01330314
C        2.82477448      18.51744722      20.10217248       66      -0.02161661       0.01531582       0.00405142
C        3.33616496      14.38905422       8.55029513       67      -0.01219789      -0.02792430       0.00780946
C        3.00188094      12.01924725       7.03972792       68      -0.04815790       0.01051809      -0.08377152
C        2.88146065      10.76817807       6.26530199       69      -0.02237307       0.00757165       0.00095847
C        2.72598299       8.32419413       4.83230945       70      -0.01172456       0.04854222       0.00756897
C        2.64116412       7.05279487       4.08990368       71       0.00728669      -0.04807073       0.03259109
C        2.58778628       7.04309875       2.68907557       72      -0.01295935       0.04211281      -0.04448766
S        3.72487493      12.90671450      10.89596192       73      -0.09841681       0.28454277      -0.58460462
S        3.76160128      20.48369754      13.72000858       74      -0.02691063      -0.61854738       0.31598002
S        3.69725083      19.10256790       5.76283094       75      -0.20821677       0.24232011       0.62272567
O        2.50413932      18.33874971       8.82985926       76      -0.05690434      -0.03014475       0.00493848
O        2.50876587      18.22580057      11.51036861       77       0.01962991      -0.02176806      -0.00174149
O        2.52015225      15.97609668      10.08667276       78      -0.10128766       0.03681609       0.03717405
O        4.50631420      18.98877131       9.70446753       79       0.01613037      -0.01349082      -0.01866041
O        4.51664570      16.36185703       9.06204722       80       0.08779052       0.04707783       0.01395765
O        4.51009149      17.13809371      11.66120199       81       0.03318402       0.01044595      -0.05145158
O        2.56105509      13.13196984      11.76233597       82      -0.76378393       0.00280450       0.70344901
O        4.36542582      11.61637409      11.04310965       83       0.38846710      -0.83885193       0.10569406
O        4.68065876      14.09671858      11.18445808       84       0.48543108       0.61874604       0.14636126
O        2.57274155      21.08841036      13.11508600       85      -0.82199001       0.61034358      -0.34706002
O        4.42079610      21.28026519      14.74117243       86       0.26866028       0.41354680       0.47920719
O        4.68431606      20.13871426      12.52117932       87       0.66173708      -0.12244834      -0.66573507
O        2.49534529      18.28847769       5.54592719       88      -0.69630730      -0.50203586      -0.32544601
O        4.34753100      19.57487000       4.56116892       89       0.42839953       0.30252934      -0.84638292
O        4.61105878      18.20733804       6.65367802       90       0.50732279      -0.42327911       0.37733528
91
Lattice="4.27032167 0.0 0.0 1.1847847538355547 23.380220403932736 0.0 1.1081724755124904 11.63583371689372 20.276140520061155" Properties=species:S:1:pos:R:3:spacegroup_kinds:I:1:forces:R:3 spacegroup="P 1" unit_cell=conventional occupancy="_JSON {\"0\": {\"Al\": 1}, \"1\": {\"H\": 1}, \"2\": {\"H\": 1}, \"3\": {\"H\": 1}, \"4\": {\"H\": 1}, \"5\": {\"H\": 1}, \"6\": {\"H\": 1}, \"7\": {\"H\": 1}, \"8\": {\"H\": 1}, \"9\": {\"H\": 1}, \"10\": {\"H\": 1}, \"11\": {\"H\": 1}, \"12\": {\"H\": 1}, \"13\": {\"H\": 1}, \"14\": {\"H\": 1}, \"15\": {\"H\": 1}, \"16\": {\"H\": 1}, \"17\": {\"H\": 1}, \"18\": {\"H\": 1}, \"19\": {\"H\": 1}, \"20\": {\"H\": 1}, \"21\": {\"H\": 1}, \"22\": {\"H\": 1}, \"23\": {\"H\": 1}, \"24\": {\"H\": 1}, \"25\": {\"H\": 1}, \"26\": {\"H\": 1}, \"27\": {\"H\": 1}, \"28\": {\"C\": 1}, \"29\": {\"C\": 1}, \"30\": {\"C\": 1}, \"31\": {\"C\": 1}, \"32\": {\"C\": 1}, \"33\": {\"C\": 1}, \"34\": {\"C\": 1}, \"35\": {\"C\": 1}, \"36\": {\"C\": 1}, \"37\": {\"C\": 1}, \"38\": {\"C\": 1}, \"39\": {\"C\": 1}, \"40\": {\"C\": 1}, \"41\": {\"C\": 1}, \"42\": {\"C\": 1}, \"43\": {\"C\": 1}, \"44\": {\"C\": 1}, \"45\": {\"C\": 1}, \"46\": {\"C\": 1}, \"47\": {\"C\": 1}, \"48\": {\"C\": 1}, \"49\": {\"C\": 1}, \"50\": {\"C\": 1}, \"51\": {\"C\": 1}, \"52\": {\"C\": 1}, \"53\": {\"C\": 1}, \"54\": {\"C\": 1}, \"55\": {\"C\": 1}, \"56\": {\"C\": 1}, \"57\": {\"C\": 1}, \"58\": {\"C\": 1}, \"59\": {\"C\": 1}, \"60\": {\"C\": 1}, \"61\": {\"C\": 1}, \"62\": {\"C\": 1}, \"63\": {\"C\": 1}, \"64\": {\"C\": 1}, \"65\": {\"C\": 1}, \"66\": {\"C\": 1}, \"67\": {\"C\": 1}, \"68\": {\"C\": 1}, \"69\": {\"C\": 1}, \"70\": {\"C\": 1}, \"71\": {\"C\": 1}, \"72\": {\"C\": 1}, \"73\": {\"S\": 1}, \"74\": {\"S\": 1}, \"75\": {\"S\": 1}, \"76\": {\"O\": 1}, \"77\": {\"O\": 1}, \"78\": {\"O\": 1}, \"79\": {\"O\": 1}, \"80\": {\"O\": 1}, \"81\": {\"O\": 1}, \"82\": {\"O\": 1}, \"83\": {\"O\": 1}, \"84\": {\"O\": 1}, \"85\": {\"O\": 1}, \"86\": {\"O\": 1}, \"87\": {\"O\": 1}, \"88\": {\"O\": 1}, \"89\": {\"O\": 1}, \"90\": {\"O\": 1}}" energy=-632.5751342773438 free_energy=-632.5751342773438 stress="-0.002833714708685875 8.121224527712911e-05 0.00012870335194747895 8.121224527712911e-05 -0.002405417151749134 -3.4185486583737656e-05 0.00012870335194747895 -3.4185486583737656e-05 -0.0027442050632089376" pbc="T T T"
Al       1.35232275      17.50520364      10.14144842        0      -0.02439812      -0.03028566      -0.01265026
H        3.27927898      15.55795076      13.70420068        1       0.02553943      -0.04213649      -0.02707655
H        3.16360310      15.44002660      16.17479474        2      -0.00243789      -0.02155635      -0.00984304
H        4.53324784      15.72842198      18.03352096        3       0.00049437       0.00879362      -0.03977363
H        3.57032230       4.06048682       0.21541270        4      -0.00944490       0.02571510       0.00364858
H        3.46257389      21.77935775       5.07726947        5      -0.02767834      -0.02662946      -0.02617292
H        2.17932081      23.61422232       4.55329902        6      -0.00996026       0.01301488       0.01991307
H        1.12570227       2.37513783       3.35751744        7      -0.01733109       0.01866772      -0.01972893
H        2.36733166       3.69797332       2.12795357        8      -0.00275571      -0.01611370      -0.01590905
H        3.45183057      21.56834639      10.03891922        9       0.02033171       0.00448437       0.03528388
H        3.38108858      23.76806732       8.90516547       10      -0.00846455       0.01173162       0.00400265
H        4.70108848      25.19789014       7.66627636       11       0.00420047      -0.02646218       0.00822626
H        3.67045085       3.95259485       6.45557719       12      -0.01358615      -0.00430088      -0.02151497
H        3.23357632      11.00219845       8.93776605       13      -0.03620125       0.01360776       0.00466898
H        1.66588730       9.76237785       7.74341043       14       0.00227466       0.00355368      -0.02725217
H        1.51775676       7.64851364       6.49403035       15       0.00721906       0.01324519      -0.02905808
H        2.62821704       5.82332632       5.86113530       16       0.00150883      -0.00609091      -0.01873684
H        3.20902750      15.42003291       6.66155295       17       0.02528742      -0.01020984      -0.00443456
H        2.88772637      13.35019263       5.33573399       18      -0.01093609       0.01616702      -0.06798291