83
Lattice="9.73935114 0.0 0.0 0.20131351801445677 10.920742055758087 0.0 3.681802266645252 0.44408004635999815 14.466146298626244" Properties=species:S:1:pos:R:3:spacegroup_kinds:I:1:forces:R:3 spacegroup="P 1" unit_cell=conventional occupancy="_JSON {\"0\": {\"Zn\": 1}, \"1\": {\"Zn\": 1}, \"2\": {\"H\": 1}, \"3\": {\"H\": 1}, \"4\": {\"H\": 1}, \"5\": {\"H\": 1}, \"6\": {\"H\": 1}, \"7\": {\"H\": 1}, \"8\": {\"H\": 1}, \"9\": {\"H\": 1}, \"10\": {\"H\": 1}, \"11\": {\"H\": 1}, \"12\": {\"H\": 1}, \"13\": {\"H\": 1}, \"14\": {\"H\": 1}, \"15\": {\"H\": 1}, \"16\": {\"H\": 1}, \"17\": {\"H\": 1}, \"18\": {\"H\": 1}, \"19\": {\"H\": 1}, \"20\": {\"H\": 1}, \"21\": {\"H\": 1}, \"22\": {\"H\": 1}, \"23\": {\"H\": 1}, \"24\": {\"H\": 1}, \"25\": {\"H\": 1}, \"26\": {\"H\": 1}, \"27\": {\"C\": 1}, \"28\": {\"C\": 1}, \"29\": {\"C\": 1}, \"30\": {\"C\": 1}, \"31\": {\"C\": 1}, \"32\": {\"C\": 1}, \"33\": {\"C\": 1}, \"34\": {\"C\": 1}, \"35\": {\"C\": 1}, \"36\": {\"C\": 1}, \"37\": {\"C\": 1}, \"38\": {\"C\": 1}, \"39\": {\"C\": 1}, \"40\": {\"C\": 1}, \"41\": {\"C\": 1}, \"42\": {\"C\": 1}, \"43\": {\"C\": 1}, \"44\": {\"C\": 1}, \"45\": {\"C\": 1}, \"46\": {\"C\": 1}, \"47\": {\"C\": 1}, \"48\": {\"C\": 1}, \"49\": {\"C\": 1}, \"50\": {\"C\": 1}, \"51\": {\"C\": 1}, \"52\": {\"C\": 1}, \"53\": {\"C\": 1}, \"54\": {\"C\": 1}, \"55\": {\"C\": 1}, \"56\": {\"C\": 1}, \"57\": {\"C\": 1}, \"58\": {\"C\": 1}, \"59\": {\"C\": 1}, \"60\": {\"C\": 1}, \"61\": {\"C\": 1}, \"62\": {\"C\": 1}, \"63\": {\"C\": 1}, \"64\": {\"C\": 1}, \"65\": {\"C\": 1}, \"66\": {\"C\": 1}, \"67\": {\"C\": 1}, \"68\": {\"C\": 1}, \"69\": {\"C\": 1}, \"70\": {\"N\": 1}, \"71\": {\"N\": 1}, \"72\": {\"N\": 1}, \"73\": {\"O\": 1}, \"74\": {\"O\": 1}, \"75\": {\"O\": 1}, \"76\": {\"O\": 1}, \"77\": {\"O\": 1}, \"78\": {\"O\": 1}, \"79\": {\"O\": 1}, \"80\": {\"O\": 1}, \"81\": {\"O\": 1}, \"82\": {\"O\": 1}}" energy=-579.4193115234375 free_energy=-579.4193115234375 stress="0.000899821927305311 0.002111209323629737 0.0010621253168210387 0.002111209323629737 0.001192165189422667 0.0001489301648689434 0.0010621253168210387 0.0001489301648689434 -0.002948838286101818" pbc="T T T"
Zn       3.29776000       5.54577399       7.26699430        0       0.35203212      -0.31023407      -0.02215185
Zn      10.21093761       5.64531634       7.14840158        1      -0.11235952      -0.20490791       0.04077062
H        7.63924657       8.16708204       1.02407514        2       0.09619099       0.05950440       0.15201437
H        9.27703523       3.84518119       9.10407099        3      -0.18152846       0.00365307      -0.12851804
H        8.10125565       2.05524397      10.33835599        4      -0.33528578       0.61352330      -0.27899876
H        5.59452641       1.91752413      10.20973935        5      -0.62120765      -0.97700179       0.66528320
H        4.30191637       3.49590173       8.82645695        6      -0.33051866       0.13739039      -0.15687475
H        5.46864281       7.12736006       6.10151553        7       0.01217291      -0.17052242       0.36877859
H        9.66724122       5.41412485       2.78313989        8       1.53962874       0.23421112      -0.80884188
H       12.90379760       8.32154705      13.65078961        9      -0.71095610      -0.60716599      -0.70593679
H        9.53996563       5.66724284      11.15943385       10      -0.29319894      -0.24896148      -0.31159550
H        5.52772296       7.59529249       2.16514910       11      -0.00014684       0.18379451       0.08042963
H        7.67913893       5.61362264      11.82815215       12      -0.25080025      -0.01237963       0.75413525
H        0.25633336       5.10599621       0.26829516       13       0.95000350       0.41432709       0.60632312
H        5.51449520       4.79282874       2.54831664       14       0.46872893      -0.47474921      -1.35144222
H        4.80738984       4.43749363       4.14617118       15       0.45847142       0.50948584      -0.46524379
H        6.19781049       5.57886310       4.00662779       16      -0.00520870       0.00702250      -0.16472080
H        6.00470716       3.14861850      12.62103099       17      -0.27154177       0.14919420      -0.06193800
H        4.24689497       3.46053932      12.33802415       18      -0.72252619      -0.45858604      -0.72137702
H        4.89176241       3.52589442      13.96980535       19       0.03746702      -0.01014023       0.07943758
H       10.34759876       1.31355054       8.81682884       20      -0.45268297       0.31718004       0.68212980
H        2.87281658       2.64596942       4.84872344       21       0.08107565       0.67357433       0.02829729
H        3.91918443       1.51355272       2.91921692       22       0.15657896       0.18200698      -0.29290342
H        4.17768678       9.94285902       2.87953755       23       0.04651221      -0.07161173       0.07545897
H        3.24165112       8.59131445       4.76205193       24       0.11285621      -0.27871063      -0.06487563
H       10.59930995       9.72310263       8.78411086       25       0.44511929       0.27126676      -0.65737152
H        8.01123771       7.19884956       6.16181802       26       0.47897685       0.47425416      -0.50301468
C       11.44072300       3.02715674       7.11149772       27       1.43347883      -1.36638892      -0.09536576
C        2.36897163       5.59798072       0.36228401       28       1.49644125       0.20539787       0.44660339
C        3.49582017       6.05385277       1.17871419       29      -0.46129030       0.27183673      -1.47997034
C       11.68595144       5.93850135       9.74075578       30      -0.61239016      -0.48045135       0.68854511
C        1.12396524       5.41981884       0.91865405       31      -2.29243708      -0.45529372      -0.07304037
C        0.94759519       5.57114346       2.27493856       32      -1.28771412      -0.26285565       1.27792144
C        3.31334439       6.07435123       2.56644132       33      -0.96904123      -0.49716780      -0.72641098
C        2.94145072       1.57425590       4.82847156       34      -0.37936115       0.38699737       0.26172906
C        3.51591659       0.95402470       3.74668122       35      -0.34908584      -1.97162199       0.84614801
C        3.74811908      10.43064842       3.75888690       36       0.72256076       1.11728358      -1.62503040
C        3.23601297       9.66996765       4.76498175       37      -0.92216122       1.15012991       1.16297793
C        9.88338406       6.72065060      13.01760335       38       0.56602859       0.43144408       0.23640195
C        2.60162960      10.35034519       5.86333985       39       0.06715180      -0.64592338       0.87640744
C        2.34881507       0.87521877       5.91875135       40       0.75321543      -1.32352245      -0.77680790
C       11.48585836       1.51693905       7.02277411       41      -0.95295656       0.50431877       0.33407912
C        2.03140293       8.12440348       7.04688656       42      -1.81177330       0.10448262       1.12866366
C       10.82997254       0.80632753       8.01505533       43       1.14922309      -2.05730176      -1.18393672
C       11.11017456      10.28585330       7.96341161       44      -1.32910872       1.40474987       1.85685873
C        2.01666918       9.60529190       6.97455807       45       0.22984570       0.75465751      -1.44526458
C        8.19227352       3.75718431       9.01789336       46       0.61937356       0.17576809       0.34389213
C        7.52490487       2.80598566       9.75160425       47      -0.82880640      -1.16125607       0.23340122
C        6.09410914       2.67372864       9.67503016       48       1.38774323       1.62828660      -0.88557541
C       10.91229054       7.50799049      13.73153652       49      -1.05914283      -1.72007394      -2.38870144
C        5.37371182       3.57569954       8.89146186       50       0.94818836      -0.80966783       0.66181648
C        6.07656895       4.54484411       8.15866204       51       0.11716424       1.67871308      -0.75063378
C        7.49824614       4.67336888       8.20944209       52      -0.37877470      -0.30281824      -0.30170128
C        7.48328961       6.45211587       6.71345813       53      -2.79491329       0.92163646      -0.40016961
C        1.87313167       5.68826608       4.59903320       54      -1.23810065      -0.31249911       0.87407404
C        6.04668564       6.42117926       6.71769636       55       1.15397668       0.16080186      -0.52055043
C       11.47341346       6.49277690      11.15152389       56      -0.18273941      -0.80038953      -0.98119736
C        2.05666452       5.81577090       3.11505988       57      -0.66023481       0.02300212       0.47371373
C       12.14138499       7.70871703      13.07577077       58       0.93073606       1.48030078       2.58519864
C       12.48211616       7.21297635      11.84837861       59      -1.01857579      -0.21566074      -0.88480914
C        8.58228516       6.48715755      13.62157612       60       0.54503453       0.14336973       0.01699118
C       10.23464105       6.23844736      11.74733404       61       0.49607944       0.50210780       0.17660609
C        5.30120401       5.20892304       3.49293293       62      -1.30874360       0.13149112       2.06773996
C        5.10378243       3.72214240      12.91205403       63       0.81558126       0.31559759       0.74790037
C        3.97718252       7.59517724      11.28423763       64       0.38396221      -0.27884376      -0.16356815
C        4.72893783       6.46241822       0.51682918       65      -0.66738677      -0.47362116       0.00974304
C        5.71463058       7.26027640       1.15394581       66       0.11747790      -0.45303530      -0.56189179
C        6.90857800       7.53938205       0.51608078       67      -0.10377689       0.86233562       1.60663319
C        7.52100184       5.86265735      12.90061635       68       0.97181475       0.53690505      -0.40519902
C        6.29081839       5.69828373      13.48280402       69       0.09854099      -0.53897071      -1.14736021
N        8.14770671       5.61726958       7.42595897       70       1.33189654      -1.72151661       1.39400411
N        5.40040451       5.48809252       7.38551806       71      -0.82177484      -0.60926545       0.11886216
N        5.03667352       7.93153946      10.94139893       72       0.57871038       0.36445677      -0.16140527
O        2.79518919       3.55175585       7.47451296       73       0.50893712       0.41317558       0.27918383
O        5.29009814       5.13431196      12.68941962       74       0.16899553       0.21943507       0.45295122
O       10.39006576       3.61537115       6.81655501       75      -1.54494810       0.80682921      -0.26246202
O        3.11464440       5.99656297       9.24271570       76      -0.23495924       0.13683251       0.10594832
O       10.66706045       5.37773946       9.17838043       77       0.69571394       0.53632379       0.35182947
O        3.11053149       7.53373456       6.83956475       78       0.98018503      -0.62116432      -0.57425439
O       10.66274953       7.56628185       7.45699272       79       1.00574827       0.69395006      -0.66506636
O        2.82207891       5.20119008       5.30542280       80       0.18990023       0.30894023      -0.49636102
O       10.44580482       5.96339239       5.09800417       81       0.90360808       0.04447720      -0.63671738
O        4.34677202       6.29951292       3.37896238       82       1.89503074       0.25785637       1.13937271
83
Lattice="9.73935114 0.0 0.0 0.20131351801445677 10.920742055758087 0.0 3.681802266645252 0.44408004635999815 14.466146298626244" Properties=species:S:1:pos:R:3:spacegroup_kinds:I:1:forces:R:3 spacegroup="P 1" unit_cell=conventional occupancy="_JSON {\"0\": {\"Zn\": 1}, \"1\": {\"Zn\": 1}, \"2\": {\"H\": 1}, \"3\": {\"H\": 1}, \"4\": {\"H\": 1}, \"5\": {\"H\": 1}, \"6\": {\"H\": 1}, \"7\": {\"H\": 1}, \"8\": {\"H\": 1}, \"9\": {\"H\": 1}, \"10\": {\"H\": 1}, \"11\": {\"H\": 1}, \"12\": {\"H\": 1}, \"13\": {\"H\": 1}, \"14\": {\"H\": 1}, \"15\": {\"H\": 1}, \"16\": {\"H\": 1}, \"17\": {\"H\": 1}, \"18\": {\"H\": 1}, \"19\": {\"H\": 1}, \"20\": {\"H\": 1}, \"21\": {\"H\": 1}, \"22\": {\"H\": 1}, \"23\": {\"H\": 1}, \"24\": {\"H\": 1}, \"25\": {\"H\": 1}, \"26\": {\"H\": 1}, \"27\": {\"C\": 1}, \"28\": {\"C\": 1}, \"29\": {\"C\": 1}, \"30\": {\"C\": 1}, \"31\": {\"C\": 1}, \"32\": {\"C\": 1}, \"33\": {\"C\": 1}, \"34\": {\"C\": 1}, \"35\": {\"C\": 1}, \"36\": {\"C\": 1}, \"37\": {\"C\": 1}, \"38\": {\"C\": 1}, \"39\": {\"C\": 1}, \"40\": {\"C\": 1}, \"41\": {\"C\": 1}, \"42\": {\"C\": 1}, \"43\": {\"C\": 1}, \"44\": {\"C\": 1}, \"45\": {\"C\": 1}, \"46\": {\"C\": 1}, \"47\": {\"C\": 1}, \"48\": {\"C\": 1}, \"49\": {\"C\": 1}, \"50\": {\"C\": 1}, \"51\": {\"C\": 1}, \"52\": {\"C\": 1}, \"53\": {\"C\": 1}, \"54\": {\"C\": 1}, \"55\": {\"C\": 1}, \"56\": {\"C\": 1}, \"57\": {\"C\": 1}, \"58\": {\"C\": 1}, \"59\": {\"C\": 1}, \"60\": {\"C\": 1}, \"61\": {\"C\": 1}, \"62\": {\"C\": 1}, \"63\": {\"C\": 1}, \"64\": {\"C\": 1}, \"65\": {\"C\": 1}, \"66\": {\"C\": 1}, \"67\": {\"C\": 1}, \"68\": {\"C\": 1}, \"69\": {\"C\": 1}, \"70\": {\"N\": 1}, \"71\": {\"N\": 1}, \"72\": {\"N\": 1}, \"73\": {\"O\": 1}, \"74\": {\"O\": 1}, \"75\": {\"O\": 1}, \"76\": {\"O\": 1}, \"77\": {\"O\": 1}, \"78\": {\"O\": 1}, \"79\": {\"O\": 1}, \"80\": {\"O\": 1}, \"81\": {\"O\": 1}, \"82\": {\"O\": 1}}" energy=-577.9873046875 free_energy=-577.9873046875 stress="-0.000555677805095911 0.0006895961123518646 -0.0004711543151643127 0.0006895961123518646 -0.0005994172533974051 -0.0022867636289447546 -0.0004711543151643127 -0.0022867636289447546 -0.0062795099802315235" pbc="T T T"
Zn       3.27265045       5.52955497       7.25840987        0       0.42227498      -0.21841857       0.19015247
Zn      10.20505537       5.63808311       7.17682116        1      -0.16846049      -0.04141058      -0.33572027
H        7.61064632       8.15528788       0.99568085        2       1.31291783       1.02735281       1.04604840
H        9.30293916       3.86761489       9.12610211        3      -1.80914676      -0.05670698      -0.51008075
H        8.11076541       2.04568849      10.34841692        4      -0.45835945       0.83645386      -0.55390143
H        5.61778237       1.93680554      10.21943145        5      -0.41292048      -0.55941701       0.32508165
H        4.29322186       3.49694484       8.79761144        6       0.17612219       0.10415397       0.04546510
H        5.46167138       7.10673138       6.12326673        7      -0.08498143       0.13022104       0.16448539
H        9.68537231       5.40735534       2.78741108        8       1.70687127       0.29883519      -1.03068984
H       12.88716198       8.30524076      13.62939931        9       0.28176814       0.05687264       0.08560205
H        9.56939221       5.65673705      11.18213576       10      -1.27480650      -1.02745569      -0.98153007
H        5.50526040       7.61637562       2.14113291       11       0.02104560       0.10988067       0.32768044
H        7.67339282       5.60105630      11.83940414       12      -0.10007773      -0.05951219       0.11183648
H        0.26191649       5.13319866       0.27069310       13       0.44335738       0.13193353       0.21576080
H        5.48579343       4.80319541       2.55790036       14       0.70732677      -0.56935209      -2.01959825
H        4.83227676       4.44143074       4.11903483       15       0.36381131       0.53896344      -0.26084572
H        6.20911662       5.57831341       4.01549241       16       0.04516341       0.12305036      -0.27198923
H        5.98613551       3.12075874      12.60341218       17      -0.12757030       0.24455553      -0.09057330
H        4.26577169       3.45064101      12.36573814       18      -2.21503139      -0.92810369      -1.59497011
H        4.91713363       3.55433498      13.97484476       19       0.03159933      -0.15269189      -0.17968301
H       10.36918010       1.28435232       8.79947356       20      -1.55131662       1.36336505       2.45335197
H        2.86295069       2.67340209       4.85119956       21       0.24422242       0.45518509      -0.20939429
H        3.94776706       1.52589189       2.92954659       22      -0.27658963      -0.47159323       0.23698147
H        4.15755058       9.95673124       2.85661500       23       0.20705082      -0.51746947      -0.28057930
H        3.25852808       8.60963453       4.76362648       24       0.00842804      -0.69460601       0.17140229
H       10.59406552       9.74248406       8.76563430       25       0.49361378       0.09114157      -0.52054960
H        8.01175625       7.19132994       6.17188694       26       0.53686255       0.79300284      -0.71397322
C       11.41703767       3.00431975       7.12999400       27       2.94413972      -0.42613870       0.25101268
C        2.38570540       5.57618471       0.39047328       28       0.19790787       0.10529018      -1.35924065
C        3.47282411       6.06356017       1.17350118       29       1.39562678       0.55490297      -1.62054539
C       11.66908799       5.93817697       9.73094090       30       0.53009403      -0.35782850       0.98625296
C        1.11037505       5.40742742       0.91916252       31      -0.69073582      -0.23326230      -0.93418586
C        0.96691583       5.56670781       2.24709916       32      -2.26445198      -0.22087251       3.31679440
C        3.34163192       6.08137345       2.53733599       33      -2.97701621      -0.68178624       1.24728870
C        2.94351324       1.59730648       4.80952938       34      -0.67832339      -0.07630479       1.30570412
C        3.50345043       0.92810467       3.74849527       35       0.14747429      -1.00065529      -0.19619083
C        3.72719140      10.40244189       3.73591450       36       0.49504152       2.13166237      -0.51756275
C        3.24307239       9.67746059       4.79301032       37      -0.68917394       1.05302298      -0.02042362
C        9.88297360       6.74270840      13.01478137       38       0.02054169      -0.16312318      -0.23726946
C        2.60624084      10.36116168       5.85326189       39      -0.13191108      -0.46361801       2.14712214
C        2.37244743       0.90409114       5.93693452       40       0.60607088      -2.25358224      -1.49588907
C       11.48454283       1.50482235       7.04696557       41      -0.85927880       1.33078301      -0.12045043
C        2.05693644       8.14940244       7.06711121       42      -2.94301605      -1.67651784       1.08519781
C       10.81310335       0.81820412       8.01904280       43       2.40150499      -4.18712521      -2.90055704
C       11.13389201      10.27651800       7.94722095       44      -2.62215042       2.40058064       3.36540937
C        2.00929659       9.57581039       7.00243770       45       1.53620911       2.60531044      -3.37149858
C        8.16438169       3.76165236       8.98868722       46       2.72933269      -0.03371482       1.22801507
C        7.53436980       2.79277531       9.73744553       47      -0.41301301      -0.63651377      -0.03706430
C        6.11736207       2.69216602       9.65185118       48       0.44201696       0.23110950       0.25776199
C       10.88438156       7.52785742      13.75368797       49       0.79919183      -2.31957984      -4.35848475
C        5.37760517       3.57978819       8.89816549       50       0.42850208      -0.72796750       0.04810632
C        6.08105983       4.51754456       8.13424857       51      -1.49294734       2.57416630      -0.84564346
C        7.46845611       4.69546868       8.19902492       52       0.58521104      -1.38202643      -0.05473863
C        7.45371343       6.47438207       6.71338048       53      -1.02219748      -0.77542901       0.61538839
C        1.89871552       5.67690874       4.57982879       54      -3.46263981       0.20382407       2.15765810
C        6.05711017       6.41514468       6.72151183       55      -0.49853459      -0.07565260      -0.23955518
C       11.48235194       6.47542780      11.12495809       56      -1.10028172      -0.20469879       0.30954289
C        2.05522136       5.82064228       3.11264877       57       0.59120548       0.06139532      -0.44043297
C       12.15948777       7.69734896      13.10296902       58      -0.74037790       0.61943805       0.78118706
C       12.46230510       7.24201754      11.83331246       59      -0.42464173      -0.46459520      -0.41437048
C        8.56726935       6.50811676      13.59349105       60       1.46548533       0.62632543       1.34577703
C       10.23844281       6.21629488      11.74681057       61       1.93524253       1.77702475       1.01387298
C        5.31374856       5.23440301       3.48613935       62      -1.64421344       0.23185134       2.70325780
C        5.09921061       3.70891643      12.89695581       63       2.11192608       1.06368053       2.05677986
C        3.99231987       7.57640723      11.27414467       64       0.13751048      -0.03998327      -0.05387163
C        4.74301008       6.48788255       0.54227086       65      -2.65785933      -2.13705778      -2.43531179
C        5.69355824       7.23212179       1.15294874       66       2.41495585       1.18443716      -0.05442496
C        6.93699034       7.52427506       0.51520587       67      -3.03247166       0.18592545       2.60371995
C        7.53093817       5.87512256      12.88669770       68      -0.09382629       0.44992924       0.12984301
C        6.29218743       5.72113529      13.47580787       69      -0.36452526      -1.02901995      -0.97560298
N        8.13187473       5.58985399       7.41728846       70       0.80256957       0.20431802       0.32366616
N        5.37248766       5.47455410       7.38192857       71       0.32709497      -0.59338844      -0.10046737
N        5.05611566       7.90858520      10.92956355       72       0.25043541       0.20411351      -0.01738087
O        2.80468243       3.53249613       7.50332057       73      -0.73915726      -0.10440882      -0.12486819
O        5.26298099       5.13451784      12.66648936       74       1.11640930       0.52037400       0.98277682
O       10.39355285       3.61751426       6.81639758       75      -1.61276996       0.62576950      -0.25645757
O        3.10041679       6.00423906       9.25120597       76       0.23741269       0.22117169      -0.32110360
O       10.69492577       5.35163215       9.16636506       77      -0.50886625       0.14549804       0.02914179
O        3.10418493       7.53715175       6.85882225       78       2.36479831      -0.91677785      -0.82871073
O       10.68571583       7.55525855       7.42773251       79       0.57696402       0.94381642      -0.22920686
O        2.81805066       5.18504376       5.31098174       80       0.26757205       0.32768813      -0.81449020
O       10.41691409       5.97186915       5.11647372       81       2.79699445      -0.48744726      -1.61461234
O        4.32661180       6.31426000       3.39722581       82       2.48576450       0.07743630       0.87956375
83
Lattice="9.73935114 0.0 0.0 0.20131351801445677 10.920742055758087 0.0 3.681802266645252 0.44408004635999815 14.466146298626244" Properties=species:S:1:pos:R:3:spacegroup_kinds:I:1:forces:R:3 spacegroup="P 1" unit_cell=conventional occupancy="_JSON {\"0\": {\"Zn\": 1}, \"1\": {\"Zn\": 1}, \"2\": {\"H\": 1}, \"3\": {\"H\": 1}, \"4\": {\"H\": 1}, \"5\": {\"H\": 1}, \"6\": {\"H\": 1}, \"7\": {\"H\": 1}, \"8\": {\"H\": 1}, \"9\": {\"H\": 1}, \"10\": {\"H\": 1}, \"11\": {\"H\": 1}, \"12\": {\"H\": 1}, \"13\": {\"H\": 1}, \"14\": {\"H\": 1}, \"15\": {\"H\": 1}, \"16\": {\"H\": 1}, \"17\": {\"H\": 1}, \"18\": {\"H\": 1}, \"19\": {\"H\": 1}, \"20\": {\"H\": 1}, \"21\": {\"H\": 1}, \"22\": {\"H\": 1}, \"23\": {\"H\": 1}, \"24\": {\"H\": 1}, \"25\": {\"H\": 1}, \"26\": {\"H\": 1}, \"27\": {\"C\": 1}, \"28\": {\"C\": 1}, \"29\": {\"C\": 1}, \"30\": {\"C\": 1}, \"31\": {\"C\": 1}, \"32\": {\"C\": 1}, \"33\": {\"C\": 1}, \"34\": {\"C\": 1}, \"35\": {\"C\": 1}, \"36\": {\"C\": 1}, \"37\": {\"C\": 1}, \"38\": {\"C\": 1}, \"39\": {\"C\": 1}, \"40\": {\"C\": 1}, \"41\": {\"C\": 1}, \"42\": {\"C\": 1}, \"43\": {\"C\": 1}, \"44\": {\"C\": 1}, \"45\": {\"C\": 1}, \"46\": {\"C\": 1}, \"47\": {\"C\": 1}, \"48\": {\"C\": 1}, \"49\": {\"C\": 1}, \"50\": {\"C\": 1}, \"51\": {\"C\": 1}, \"52\": {\"C\": 1}, \"53\": {\"C\": 1}, \"54\": {\"C\": 1}, \"55\": {\"C\": 1}, \"56\": {\"C\": 1}, \"57\": {\"C\": 1}, \"58\": {\"C\": 1}, \"59\": {\"C\": 1}, \"60\": {\"C\": 1}, \"61\": {\"C\": 1}, \"62\": {\"C\": 1}, \"63\": {\"C\": 1}, \"64\": {\"C\": 1}, \"65\": {\"C\": 1}, \"66\": {\"C\": 1}, \"67\": {\"C\": 1}, \"68\": {\"C\": 1}, \"69\": {\"C\": 1}, \"70\": {\"N\": 1}, \"71\": {\"N\": 1}, \"72\": {\"N\": 1}, \"73\": {\"O\": 1}, \"74\": {\"O\": 1}, \"75\": {\"O\": 1}, \"76\": {\"O\": 1}, \"77\": {\"O\": 1}, \"78\": {\"O\": 1}, \"79\": {\"O\": 1}, \"80\": {\"O\": 1}, \"81\": {\"O\": 1}, \"82\": {\"O\": 1}}" energy=-576.9396362304688 free_energy=-576.9396362304688 stress="0.004288167227059603 0.00012466659245546907 -0.0002617812715470791 0.00012466659245546907 -0.0019496636232361197 -0.0003348756581544876 -0.0002617812715470791 -0.0003348756581544876 -0.006352587603032589" pbc="T T T"
Zn       3.29605466       5.51721080       7.25608843        0       0.27957124      -0.09242386       0.17094921
Zn      10.23290495       5.63739766       7.17423091        1      -0.20292187      -0.03157644      -0.46964523
H        7.63585213       8.14166887       0.99137867        2       1.32687378       1.11124337       1.06376112
H        9.30845459       3.84044994       9.12480631        3      -1.53592443       0.03985680      -0.43606007
H        8.11834642       2.03496364      10.36637388        4      -0.89848208       1.50379658      -1.11583376
H        5.63626566       1.93855127      10.20606707        5      -0.26280391      -0.33585310       0.12941450
H        4.28132622       3.52220124       8.80408322        6       1.07565880       0.05244582       0.09549684
H        5.44992472       7.09570901       6.10685200        7      -0.02913348      -0.14932033       0.33128932
H        9.65749409       5.39108039       2.76997859        8       2.20446277       0.38413638      -0.84007108
H       12.88234932       8.30704611      13.64455549        9      -0.04865175      -0.18518332      -0.41712648
H        9.54740416       5.63277495      11.18965893       10      -0.18801975      -0.29740831      -0.30662417
H        5.48157438       7.61743509       2.14668296       11       0.20075670       0.38787827       0.85406208
H        7.67043933       5.58493932      11.82323960       12      -0.10628092      -0.00043459       0.20657583
H        0.25583932       5.11908652       0.29541336       13      -0.55983239      -0.20195074      -0.55528498
H        5.48660061       4.78507571       2.54782547       14       0.69736332      -0.65470678      -2.22318339
H        4.85459848       4.45367096       4.13066907       15      -0.00614752       0.20499420      -0.12544987
H        6.22689555       5.57789035       4.02161724       16      -0.51147515      -0.12169927      -0.75012964
H        6.01100597       3.12481410      12.61638771       17      -0.75036013       0.52041721      -0.15271969
H        4.27274861       3.42926836      12.37940378       18      -3.25103998      -1.16711342      -2.41414332
H        4.92759459       3.53975692      13.94856349       19      -0.05483707      -0.06665628      -0.13054113
H       10.39823852       1.30358181       8.78219390       20      -1.85341883       1.52389264       2.95719957
H        2.88564744       2.67932165       4.84068090       21       0.30099005       0.58820617      -0.27155524
H        3.92260437       1.51908193       2.92333302       22      -0.06359030      -0.52570945      -0.13848285
H        4.18211506       9.97926128       2.88025802       23       0.05674447      -0.66005349      -0.21954520
H        3.27785504       8.63036963       4.79205607       24       0.15506415      -1.41178393      -0.02334729
H       10.58829756       9.72308760       8.77196852       25       0.81382930       0.49529177      -0.76065677
H        8.02267759       7.19379120       6.15096213       26      -0.13752313       0.00911351      -0.14097056
C       11.42149583       3.00031298       7.10253586       27       2.88554096       0.19318241       1.26766133
C        2.37433817       5.57865941       0.38967415       28      -0.20046514       0.25818908      -1.56668985
C        3.46075852       6.09124979       1.19995306       29       1.29084158       0.13486889      -4.08198452
C       11.64025451       5.91202850       9.73384216       30       2.14677715       0.10051072       0.66493309
C        1.08555802       5.39862521       0.89851197       31       1.16445160       0.46297386       1.80013406
C        0.97911472       5.56239884       2.27439988       32      -2.74725962      -0.44806340       1.32812095
C        3.36704519       6.09026479       2.52517666       33      -4.82961178      -0.78504038       2.85056162
C        2.97252575       1.60811390       4.78348673       34      -1.13328660      -0.59088922       1.98519695
C        3.49727769       0.91098644       3.73169268       35      -0.00809816      -0.31141007       0.05123071
C        3.70133934      10.39774472       3.75133640       36       1.66880774       2.60421252      -2.43919778
C        3.26196241       9.68108338       4.77921574       37      -1.91942286       0.56937653       2.11467910
C        9.88504150       6.75500546      12.98497757       38       0.01575247      -0.07322909       1.14760876