76
Lattice="13.86998149 0.0 0.0 0.2747095782600796 14.476028141844859 0.0 0.46185380963619516 -0.700659692857429 15.186054493812696" Properties=species:S:1:pos:R:3:spacegroup_kinds:I:1:forces:R:3 spacegroup="P 1" unit_cell=conventional occupancy="_JSON {\"0\": {\"Zn\": 1}, \"1\": {\"Zn\": 1}, \"2\": {\"H\": 1}, \"3\": {\"H\": 1}, \"4\": {\"H\": 1}, \"5\": {\"H\": 1}, \"6\": {\"H\": 1}, \"7\": {\"H\": 1}, \"8\": {\"H\": 1}, \"9\": {\"H\": 1}, \"10\": {\"H\": 1}, \"11\": {\"H\": 1}, \"12\": {\"H\": 1}, \"13\": {\"H\": 1}, \"14\": {\"H\": 1}, \"15\": {\"H\": 1}, \"16\": {\"H\": 1}, \"17\": {\"H\": 1}, \"18\": {\"C\": 1}, \"19\": {\"C\": 1}, \"20\": {\"C\": 1}, \"21\": {\"C\": 1}, \"22\": {\"C\": 1}, \"23\": {\"C\": 1}, \"24\": {\"C\": 1}, \"25\": {\"C\": 1}, \"26\": {\"C\": 1}, \"27\": {\"C\": 1}, \"28\": {\"C\": 1}, \"29\": {\"C\": 1}, \"30\": {\"C\": 1}, \"31\": {\"C\": 1}, \"32\": {\"C\": 1}, \"33\": {\"C\": 1}, \"34\": {\"C\": 1}, \"35\": {\"C\": 1}, \"36\": {\"C\": 1}, \"37\": {\"C\": 1}, \"38\": {\"C\": 1}, \"39\": {\"C\": 1}, \"40\": {\"C\": 1}, \"41\": {\"C\": 1}, \"42\": {\"C\": 1}, \"43\": {\"C\": 1}, \"44\": {\"C\": 1}, \"45\": {\"C\": 1}, \"46\": {\"C\": 1}, \"47\": {\"C\": 1}, \"48\": {\"C\": 1}, \"49\": {\"C\": 1}, \"50\": {\"C\": 1}, \"51\": {\"C\": 1}, \"52\": {\"C\": 1}, \"53\": {\"C\": 1}, \"54\": {\"C\": 1}, \"55\": {\"C\": 1}, \"56\": {\"C\": 1}, \"57\": {\"C\": 1}, \"58\": {\"S\": 1}, \"59\": {\"S\": 1}, \"60\": {\"N\": 1}, \"61\": {\"N\": 1}, \"62\": {\"O\": 1}, \"63\": {\"O\": 1}, \"64\": {\"O\": 1}, \"65\": {\"O\": 1}, \"66\": {\"O\": 1}, \"67\": {\"O\": 1}, \"68\": {\"O\": 1}, \"69\": {\"O\": 1}, \"70\": {\"O\": 1}, \"71\": {\"O\": 1}, \"72\": {\"O\": 1}, \"73\": {\"O\": 1}, \"74\": {\"O\": 1}, \"75\": {\"O\": 1}}" energy=-541.4528198242188 free_energy=-541.4528198242188 stress="-0.0005297499592415988 0.00031514588044956326 9.592623973730952e-05 0.00031514588044956326 -0.0025783563032746315 -0.0003831725043710321 9.592623973730952e-05 -0.0003831725043710321 -0.0010979222133755684" pbc="T T T"
Zn       5.90033278       6.86248796       7.58068533        0       0.04820935       0.16784529       0.47793707
Zn       8.71375810       6.88242032       7.55665738        1      -0.25500172       0.00533482       0.39796835
H        6.83075560       4.91646322      11.63828902        2       0.03797389      -0.08425967       0.16860187
H       10.80468925       8.09531252       9.33398294        3       0.26577342      -0.10957775      -0.57581943
H        1.62322070       4.89857813       4.82159427        4      -0.50502861       0.24404120       0.33551139
H       12.99436494       8.93746532      10.31659732        5      -0.12857614       0.15065047       0.26456624
H        1.62081333       8.93406598      10.35139622        6       0.15696386       0.00211117      -0.21488848
H       13.00399588       4.95478546       4.82689164        7       0.05206887       0.16133262       0.18325356
H        8.80921828       9.18510692       9.58471238        8      -0.25055388      -0.02245311      -0.41329157
H        8.20489582       3.93372657       4.80362105        9      -0.02475083       0.11473449       0.36683622
H        7.69225296       8.97196947       3.58394698       10       0.15896547       0.65465176       0.41292140
H        6.59055128       3.48614398      13.59469038       11      -0.27510566      -0.77276504      -0.70567453
H        7.83071428      10.45013739       1.59173252       12      -0.05158003      -0.49388352      -0.27280086
H        6.28930666       3.83416100       0.83442078       13       0.04785884       0.16496190       0.20913018
H        8.19571837      10.02832704      14.37619828       14       0.29636016       0.94719750      -0.42303836
H        3.81755645       8.07228965       9.28945064       15      -0.32468188      -0.00443287      -0.11269593
H       10.80575358       5.75881986       5.86612075       16       0.32344770       0.43528843       0.61020017
H        3.77433996       5.64841519       5.90690999       17       0.34585446       0.06937184       0.00392933
C        7.20777230       6.84555842       5.01148139       18       4.01475334       1.61523199       0.05783191
C        8.06595914       9.04979915      14.75737981       19      -0.34690228      -0.28581798       1.00284553
C        3.16653928       7.58058412       8.54913192       20       1.11669970       0.02938391       0.35757339
C       11.40913380       6.29021377       6.64518521       21       1.25661063      -1.66317928      -2.08765745
C        3.18778532       6.20341548       6.63438683       22      -0.22825131       0.48375040       0.76146758
C       11.41486350       7.63397726       8.52797203       23       0.96396387      -0.20672213       0.99585235
C        1.79987345       6.19134684       6.58173961       24      -1.38452983       0.08672354       0.43788475
C       12.85781794       7.63047023       8.60646622       25      -2.48905277       0.39923483      -0.06403421
C        1.77922243       7.61369665       8.60736105       26       0.01593772       0.78125548       0.18827194
C       12.83846311       6.19976516       6.58406854       27      -1.36056805       0.84740210       0.79486811
C        1.06601700       6.93469696       7.61845929       28       0.70949978      -1.52617443      -1.82821131
C        7.31511486       6.95865516      10.18046536       29       0.50617999      -0.67032903      -1.08918905
C       13.52296126       6.91412358       7.59976974       30       0.77319539      -0.11650148      -0.19381806
C        1.03001104       5.45248850       5.57974551       31       2.99434233       0.56339419       0.50919861
C       13.56087439       8.36924835       9.59246105       32       1.43832839      -0.05814299      -0.45216748
C        1.09004484       8.39448487       9.56277510       33      -1.73420835      -0.12234423       0.88457930
C       13.57225741       5.50396159       5.59342222       34      -2.03751159      -0.72836268      -0.76180947
C        7.27757134       9.54881815       7.66321052       35       0.40510178      -1.78537536       0.61794448
C        7.38828579       4.27779838       7.68785270       36       0.59438789       0.48322618      -0.59496140
C        7.32326858      10.97270122       7.68461205       37      -0.10331289      -1.18920910      -0.14172779
C        7.38191516       2.81249040       7.76382822       38       0.11714481       4.24689293       0.02870207
C        7.39265482      12.18033854       7.70630667       39       0.10636634       2.47695541       0.04725252
C        7.50664540       6.67543106      14.48238003       40       0.02222542       2.14314651      -0.83756363
C        7.28670128       1.62313979       7.73812628       41       0.02230125      -2.59128022       0.03189686
C        7.45970614      13.54440826       7.72288397       42      -0.03455795      -1.67886257       0.01388012
C        7.26707539       0.28989549       7.75015091       43      -0.16229141      -0.11744261      -0.06942581
C        7.73631934       8.08041674      12.43067341       44      -0.19862913       0.94101959       0.14469540
C        6.94722713       5.80601492       2.69247789       45       0.00241078      -0.64692795      -1.01715112
C        7.38902013       6.95415467      11.67315567       46       0.00016708       0.50897300      -0.15683281
C        7.21519458       6.91647193       3.50001360       47       0.08565480      -0.52250218       0.87846446
C        7.11477826       5.74978015      12.28764943       48      -0.26256594       0.09363307      -1.73149979
C        7.45223331       8.14720487       2.94833642       49       0.12938629      -0.02198829      -1.61773932
C        7.15099719       5.61041881      13.64316523       50      -0.14048222      -2.13416123       1.53633261
C        7.06530472       7.23307412       0.70895123       51       0.52082664      -1.16900837      -0.73377466
C        7.42350766       8.31567756       1.52761119       52      -0.36160499       0.02074577       1.75865078
C        7.77527657       8.00901244      13.85131642       53      -0.05783787      -1.93775237       1.10363567
C        6.87299934       5.92068843       1.25423580       54      -0.59781587       0.01001406       1.15832341
C        6.86853548       4.29880298      14.21558227       55       0.45645702       1.62682557       2.58731794
C        7.63415115       9.56942529       0.94770484       56       0.30664715       1.13303900      -0.85034198
C        6.48289923       4.82501984       0.43096494       57       0.10590224       0.28741360      -2.38305354
S        7.95628149       9.68376793      11.54847333       58       2.39722586      -1.60111117       1.99818015
S        6.69301058       4.17564488       3.38767376       59      -1.44686818       1.31415439      -0.78241867
N        3.82502508       6.90364392       7.62055735       60       0.58318806      -0.80301553      -1.11153281
N       10.76200464       6.93942354       7.57848225       61      -0.43205130       1.00089395       0.97235203
O        6.12976363       6.69881216       5.56782758       62      -2.17078972      -0.48583835       1.16690624
O        8.52953301      10.65666135      12.48182164       63      -0.11561149       0.28233409      -0.07920684
O        9.11235255       9.28561766      10.53672997       64       0.81758732       0.17611946       0.13802159
O        5.25363637       3.97637075       3.52322239       65      -0.54283100      -0.03834713      -0.03819912
O        7.45034584       3.21209571       2.64070214       66       1.00619829      -1.19645512      -0.78851074
O        7.27985781       4.26168727       4.82038419       67       1.09749544      -0.40458921       1.34490585
O        8.41711205       6.60667953       9.59764891       68      -0.99043715       0.37106124       0.21821401
O        6.18387866       7.16717243       9.62572150       69       0.49595064       0.00541523       0.09350458
O        8.37281907       7.14619465       5.61696782       70      -2.14942598      -0.62283379      -1.46914995
O        6.22009688       8.93470461       7.31002499       71       0.40082505       0.68318516      -0.04873484
O        8.52139085       4.83614406       7.31880871       72      -1.92586184      -1.01482415       0.79259098
O        6.26231580       4.86536433       7.93489825       73       1.29851544      -0.56494439      -0.25287572
O        8.36864838       8.92748195       8.07447616       74      -0.82324392       0.86605000      -0.67057252
O        6.79062363       9.95547376      10.80817464       75      -2.58243108       0.79641867      -1.48263168
76
Lattice="13.86998149 0.0 0.0 0.2747095782600796 14.476028141844859 0.0 0.46185380963619516 -0.700659692857429 15.186054493812696" Properties=species:S:1:pos:R:3:spacegroup_kinds:I:1:forces:R:3 spacegroup="P 1" unit_cell=conventional occupancy="_JSON {\"0\": {\"Zn\": 1}, \"1\": {\"Zn\": 1}, \"2\": {\"H\": 1}, \"3\": {\"H\": 1}, \"4\": {\"H\": 1}, \"5\": {\"H\": 1}, \"6\": {\"H\": 1}, \"7\": {\"H\": 1}, \"8\": {\"H\": 1}, \"9\": {\"H\": 1}, \"10\": {\"H\": 1}, \"11\": {\"H\": 1}, \"12\": {\"H\": 1}, \"13\": {\"H\": 1}, \"14\": {\"H\": 1}, \"15\": {\"H\": 1}, \"16\": {\"H\": 1}, \"17\": {\"H\": 1}, \"18\": {\"C\": 1}, \"19\": {\"C\": 1}, \"20\": {\"C\": 1}, \"21\": {\"C\": 1}, \"22\": {\"C\": 1}, \"23\": {\"C\": 1}, \"24\": {\"C\": 1}, \"25\": {\"C\": 1}, \"26\": {\"C\": 1}, \"27\": {\"C\": 1}, \"28\": {\"C\": 1}, \"29\": {\"C\": 1}, \"30\": {\"C\": 1}, \"31\": {\"C\": 1}, \"32\": {\"C\": 1}, \"33\": {\"C\": 1}, \"34\": {\"C\": 1}, \"35\": {\"C\": 1}, \"36\": {\"C\": 1}, \"37\": {\"C\": 1}, \"38\": {\"C\": 1}, \"39\": {\"C\": 1}, \"40\": {\"C\": 1}, \"41\": {\"C\": 1}, \"42\": {\"C\": 1}, \"43\": {\"C\": 1}, \"44\": {\"C\": 1}, \"45\": {\"C\": 1}, \"46\": {\"C\": 1}, \"47\": {\"C\": 1}, \"48\": {\"C\": 1}, \"49\": {\"C\": 1}, \"50\": {\"C\": 1}, \"51\": {\"C\": 1}, \"52\": {\"C\": 1}, \"53\": {\"C\": 1}, \"54\": {\"C\": 1}, \"55\": {\"C\": 1}, \"56\": {\"C\": 1}, \"57\": {\"C\": 1}, \"58\": {\"S\": 1}, \"59\": {\"S\": 1}, \"60\": {\"N\": 1}, \"61\": {\"N\": 1}, \"62\": {\"O\": 1}, \"63\": {\"O\": 1}, \"64\": {\"O\": 1}, \"65\": {\"O\": 1}, \"66\": {\"O\": 1}, \"67\": {\"O\": 1}, \"68\": {\"O\": 1}, \"69\": {\"O\": 1}, \"70\": {\"O\": 1}, \"71\": {\"O\": 1}, \"72\": {\"O\": 1}, \"73\": {\"O\": 1}, \"74\": {\"O\": 1}, \"75\": {\"O\": 1}}" energy=-540.0096435546875 free_energy=-540.0096435546875 stress="-0.003535161493346095 0.0007292243535630405 0.0011614941759034991 0.0007292243535630405 -0.002128372900187969 -2.5698675017338246e-05 0.0011614941759034991 -2.5698675017338246e-05 -0.0008022237452678382" pbc="T T T"
Zn       5.90981739       6.86320727       7.58074165        0      -0.12312394       0.37405598       0.58459610
Zn       8.72927376       6.90062342       7.55963656        1      -0.23692264      -0.10961075       0.25967389
H        6.85053933       4.92524564      11.62545030        2       0.22021577       0.35423008       0.66665578
H       10.82831017       8.09174784       9.34316921        3      -0.38977119       0.23047456      -0.02358223
H        1.59981643       4.89337922       4.80884745        4      -0.40770221       0.38122368       0.49905419
H       12.98837527       8.93263781      10.29838816        5      -1.14811015       1.15397763       1.47308004
H        1.62211115       8.92183479      10.34499996        6       0.51806140       0.33747423       0.32529214
H       12.97874498       4.97709216       4.80104400        7       0.70580024       0.50910354       0.58192050
H        8.80792098       9.19779263       9.59928430        8      -0.52863258      -0.08097109      -1.30837572
H        8.19466324       3.95026069       4.82918278        9       0.77953911      -0.17770815       0.29857913
H        7.66531036       8.98907899       3.59498945       10       0.16673829       0.25081804       0.25886416
H        6.59318233       3.48961570      13.58659328       11      -0.65946090      -1.97670019      -1.58037257
H        7.84782333      10.43597033       1.57197014       12       0.14394784       0.26755983       0.11887756
H        6.31060465       3.83997295       0.83253365       13      -0.05899473      -0.16834466       0.38647294
H        8.22097203      10.05369490      14.35434941       14      -0.01210387      -0.28938931      -0.13488925
H        3.83286463       8.05186860       9.27411345       15       0.17826606       0.28934807       0.47914839
H       10.78117799       5.73485162       5.83910932       16       0.97678912       0.87593424       1.37578917
H        3.78529795       5.62223854       5.88149197       17      -0.61024630       0.97582179       0.86188585
C        7.19654448       6.86397623       5.01651761       18       6.10910225       1.74286962      -1.43877625
C        8.05270785       9.04296358      14.73868867       19       0.44881848       1.28795552       1.82461059
C        3.19359466       7.55518665       8.56315696       20      -0.50885201       0.44246465       0.41504914
C       11.43638050       6.26225948       6.64056731       21      -1.42869759      -1.27511358      -1.86525571
C        3.15777966       6.22770957       6.61437674       22       0.60032392      -0.37286615       0.37393397
C       11.39324186       7.63600643       8.53871151       23       3.21340656      -0.70035547       0.49769357
C        1.77021196       6.17695278       6.61123534       24      -0.73849803       0.26300526       0.07671876
C       12.88706187       7.61306234       8.60598030       25      -4.27928066       1.18503666       0.49949062
C        1.79938647       7.59405002       8.63513899       26      -1.16392040       0.61756247       0.05567177
C       12.81327967       6.19689944       6.58063800       27       0.48449591      -0.08468624      -0.60542196
C        1.04056999       6.92638815       7.64764177       28       1.54998541      -1.87436962      -2.31424618
C        7.33264651       6.95839289      10.19026522       29      -2.45648527      -0.12793072      -0.82887077
C       13.49482515       6.88834295       7.57176755       30       1.94886875       1.15769196       1.94350481
C        1.01554491       5.45244530       5.57672117       31       4.99537992       0.32516527       0.48748606
C       13.53661468       8.39581768       9.60782215       32       3.88349748      -2.12928653      -2.67628670
C        1.10307804       8.37832450       9.57899809       33      -2.75316644      -0.06628077       0.65735149
C       13.60154649       5.52370410       5.56991991       34      -5.77762413      -0.89051121      -0.85383779
C        7.29031203       9.56575177       7.64390765       35      -0.44630638      -2.22569203       0.83422673
C        7.37277783       4.28953617       7.71290184       36       0.71943533       0.42695552      -0.81191272
C        7.31945719      10.96657597       7.65608416       37       0.14038712       1.20796502      -0.21666160
C        7.38995000       2.83151826       7.78755366       38      -0.16778669       3.62152481       0.16623694
C        7.41958852      12.19056362       7.67986459       39      -0.27152070      -0.93154502      -0.01809078
C        7.50052480       6.66624063      14.46518941       40       0.20688643       2.00426745       1.19515979
C        7.27250221       1.64222007       7.74921447       41       0.14903216      -4.49639606      -0.04485270
C        7.43266007      13.51688687       7.69950210       42       0.31248441       0.58911633       0.04845160
C        7.29242615       0.26341566       7.73515329       43      -0.38566703       1.76521099      -0.02227104
C        7.73979555       8.09638951      12.41725568       44      -0.20063406       0.09553820       0.91179401
C        6.92001430       5.81259604       2.72039202       45      -0.04686008      -1.04394162      -2.21777201
C        7.39928602       6.94124297      11.67014957       46       0.30193135       1.69604802       0.62377858
C        7.20572416       6.93403161       3.47434976       47       0.09113821      -1.39250112       2.81789255
C        7.13822902       5.76133214      12.31337987       48      -0.82611382      -1.12823570      -3.31877518
C        7.46587501       8.14316188       2.95417747       49       0.34720138       1.62127495      -1.64756823
C        7.12142451       5.58587724      13.65090197       50       0.28670245      -1.16415143       1.60954165
C        7.07897200       7.24080364       0.73529764       51       0.26343417      -1.06298888      -2.17242575
C        7.44655948       8.32556923       1.55110341       52      -0.32320580       0.29444671       0.49254134
C        7.79468236       7.99404007      13.87266887       53      -0.60473782      -2.07620859      -1.10433125
C        6.85712706       5.93768454       1.26043127       54      -0.66596305      -0.79246414       1.48713851
C        6.84120620       4.28053209      14.18740192       55       0.94272625       2.66694260       4.90794849
C        7.66337241       9.57976050       0.93680490       56      -0.16404763       0.00046341      -1.00825989
C        6.47210816       4.82544508       0.43305987       57       0.14798424       0.92237836      -3.12860703
S        7.96398990       9.67755157      11.53100294       58       3.50215101      -1.10918009       3.86584806
S        6.67320729       4.15723000       3.40234587       59      -0.86476207       1.85733366      -0.25015527
N        3.80204454       6.93069507       7.60677070       60       1.69992352      -1.67390299      -2.14653444
N       10.78802308       6.92905780       7.60519991       61      -1.16414487       0.26354390      -0.17212103
O        6.13875188       6.69748434       5.54136291       62      -3.95620775      -0.65836746       2.41872287
O        8.53469229      10.68469659      12.46985702       63      -0.25704610      -0.32352948      -0.49277470
O        9.08698247       9.28098699      10.53289975       64       1.77947199       0.05794103       0.60953164
O        5.23752865       3.98126459       3.54928485       65      -0.57240975      -0.21071196      -0.02637836
O        7.46505634       3.23647419       2.63540819       66       0.82370317      -1.13058496      -0.57964700
O        7.29234470       4.28560823       4.84917083       67      -0.04759192      -0.28577477       0.69171900
O        8.39164493       6.63531826       9.60835694       68       0.86017376      -0.21462701      -0.92209017
O        6.15672459       7.17661033       9.65279748       69       1.62204862      -0.21916574       0.36565918
O        8.38708090       7.15138834       5.61703870       70      -2.55930781      -0.58306336      -1.42592669
O        6.22579315       8.94443985       7.31892634       71       0.19659775       0.52919644      -0.36953712
O        8.50073942       4.82280244       7.31499457       72      -1.59757543      -0.49233419       0.89213872
O        6.25692672       4.89078127       7.95428509       73       1.13509572      -0.66157746      -0.17272735
O        8.34398425       8.95115375       8.09445049       74       0.19098353       0.35569721      -0.62189507
O        6.81712783       9.97832018      10.83077720       75      -4.23924828       1.20345044      -2.41850185
76
Lattice="13.86998149 0.0 0.0 0.2747095782600796 14.476028141844859 0.0 0.46185380963619516 -0.700659692857429 15.186054493812696" Properties=species:S:1:pos:R:3:spacegroup_kinds:I:1:forces:R:3 spacegroup="P 1" unit_cell=conventional occupancy="_JSON {\"0\": {\"Zn\": 1}, \"1\": {\"Zn\": 1}, \"2\": {\"H\": 1}, \"3\": {\"H\": 1}, \"4\": {\"H\": 1}, \"5\": {\"H\": 1}, \"6\": {\"H\": 1}, \"7\": {\"H\": 1}, \"8\": {\"H\": 1}, \"9\": {\"H\": 1}, \"10\": {\"H\": 1}, \"11\": {\"H\": 1}, \"12\": {\"H\": 1}, \"13\": {\"H\": 1}, \"14\": {\"H\": 1}, \"15\": {\"H\": 1}, \"16\": {\"H\": 1}, \"17\": {\"H\": 1}, \"18\": {\"C\": 1}, \"19\": {\"C\": 1}, \"20\": {\"C\": 1}, \"21\": {\"C\": 1}, \"22\": {\"C\": 1}, \"23\": {\"C\": 1}, \"24\": {\"C\": 1}, \"25\": {\"C\": 1}, \"26\": {\"C\": 1}, \"27\": {\"C\": 1}, \"28\": {\"C\": 1}, \"29\": {\"C\": 1}, \"30\": {\"C\": 1}, \"31\": {\"C\": 1}, \"32\": {\"C\": 1}, \"33\": {\"C\": 1}, \"34\": {\"C\": 1}, \"35\": {\"C\": 1}, \"36\": {\"C\": 1}, \"37\": {\"C\": 1}, \"38\": {\"C\": 1}, \"39\": {\"C\": 1}, \"40\": {\"C\": 1}, \"41\": {\"C\": 1}, \"42\": {\"C\": 1}, \"43\": {\"C\": 1}, \"44\": {\"C\": 1}, \"45\": {\"C\": 1}, \"46\": {\"C\": 1}, \"47\": {\"C\": 1}, \"48\": {\"C\": 1}, \"49\": {\"C\": 1}, \"50\": {\"C\": 1}, \"51\": {\"C\": 1}, \"52\": {\"C\": 1}, \"53\": {\"C\": 1}, \"54\": {\"C\": 1}, \"55\": {\"C\": 1}, \"56\": {\"C\": 1}, \"57\": {\"C\": 1}, \"58\": {\"S\": 1}, \"59\": {\"S\": 1}, \"60\": {\"N\": 1}, \"61\": {\"N\": 1}, \"62\": {\"O\": 1}, \"63\": {\"O\": 1}, \"64\": {\"O\": 1}, \"65\": {\"O\": 1}, \"66\": {\"O\": 1}, \"67\": {\"O\": 1}, \"68\": {\"O\": 1}, \"69\": {\"O\": 1}, \"70\": {\"O\": 1}, \"71\": {\"O\": 1}, \"72\": {\"O\": 1}, \"73\": {\"O\": 1}, \"74\": {\"O\": 1}, \"75\": {\"O\": 1}}" energy=-539.34228515625 free_energy=-539.34228515625 stress="-0.003197405021637678 0.0006120915641076863 -0.0006028228672221303 0.0006120915641076863 -0.001086488482542336 0.00030992456595413387 -0.0006028228672221303 0.00030992456595413387 -0.0011726501397788525" pbc="T T T"
Zn       5.93129410       6.83744856       7.55306144        0      -0.30406788       0.61472261       0.53818864
Zn       8.74557772       6.87187970       7.56739353        1      -0.21988739       0.04510750       0.45271033
H        6.85183904       4.94709255      11.62806239        2       0.00439684      -0.09923345       0.55925655
H       10.80278792       8.11343033       9.37098022        3       0.26884723      -0.32803524      -0.96440125
H        1.59626727       4.88900978       4.81885938        4       0.03734270       0.07875339      -0.04604678
H       13.00490583       8.94931615      10.30653262        5      -1.26055336       1.08396387       1.40185785
H        1.64162087       8.93449848      10.34455956        6      -0.14926940      -0.25159314      -0.50554264
H       12.97409412       4.97477556       4.81360496        7       0.62839621       0.49285507       0.62940443
H        8.79149103       9.20895815       9.60701072        8      -0.65405846      -0.17377646      -1.76647031
H        8.21891862       3.96142922       4.83760720        9      -0.32665172       0.16022894       0.17109209
H        7.68767667       8.96536130       3.60824502       10       0.20336638       0.84266126       0.73143011
H        6.60588543       3.46685842      13.58921180       11      -0.49857041      -1.41182196      -1.26889110
H        7.82087509      10.44654160       1.59437757       12      -0.01369552      -0.63169956      -0.46631265
H        6.29516915       3.81338255       0.81186875       13       0.14935234       0.47294897       0.22520855
H        8.23717054      10.05945952      14.32859248       14      -0.01399359       0.01768407       0.00658467
H        3.85155195       8.03348824       9.24953905       15      -0.37172121       0.07937207       0.36580026
H       10.76360397       5.71201355       5.84581328       16       0.93121135       0.72487986       1.10089326
H        3.80661961       5.59909549       5.86389399       17      -0.84239197       1.21922433       1.15298688
C        7.21055062       6.88718743       4.99709801       18       2.89972711       0.50511003       0.94175166
C        8.04865788       9.07038320      14.73601216       19       0.14469674      -0.00362734       2.37643170
C        3.16491288       7.52694428       8.56543010       20       0.92911685       1.28014517       0.40029210
C       11.43088885       6.23497877       6.61754077       21      -0.87551367      -0.13552190      -0.73163044
C        3.18128985       6.21634441       6.61452062       22      -0.62863183       0.00703992       0.18363854
C       11.39947407       7.63954899       8.54478338       23       2.21122122      -0.37062392       0.62115228
C        1.74493563       6.20084715       6.62203186       24       1.78852677      -1.21058774      -1.69343066
C       12.88277203       7.62845220       8.59712968       25      -4.38769197       0.41753080       0.13270120
C        1.78518025       7.61883004       8.61910950       26      -1.09355593      -0.51889610      -0.52787930
C       12.82791192       6.22131385       6.56857491       27      -1.33989787      -1.28641176      -1.43482053
C        1.04942474       6.90102479       7.62139238       28      -0.14922588      -0.47309467      -0.83221138
C        7.30916552       6.97199539      10.17039748       29      -0.02111556      -0.68390065       0.37967768
C       13.47667682       6.86426733       7.55938763       30       3.38846207       2.57539988       3.24524689
C        1.02994428       5.46221622       5.55037652       31       2.77829123       0.96797448       1.74179780
C       13.51201659       8.39009554       9.60196117       32       4.74948549      -1.76334095      -2.48850536
C        1.09159052       8.37913394       9.55684171       33      -2.53501892       0.79515123       1.85765123
C       13.59366003       5.52294637       5.58388330       34      -3.78635168      -1.17467606      -1.65514517
C        7.28466188       9.53850207       7.62592256       35       0.33005765      -1.43773973       1.30348611
C        7.36233689       4.31198349       7.74141828       36       0.90725219      -0.36438325      -1.63070714
C        7.33883707      10.93879140       7.66024346       37       0.24937883       3.59595299      -0.24066734
C        7.41025110       2.85331778       7.77308539       38      -0.50040811       1.58145189       0.43612745
C        7.41592987      12.18756549       7.68515538       39      -0.40124333      -2.51848269      -0.13861647
C        7.49606816       6.65289605      14.47708101       40       0.53648812       2.71620369       1.55852795
C        7.25192013       1.65206114       7.73869856       41       0.39938316      -3.84259319      -0.01260656
C        7.40450954      13.52786463       7.67544162       42       0.02885280      -3.35750341       0.03274847
C        7.27951344       0.23701715       7.72674923       43      -0.10542204       6.33008003       0.05053297
C        7.74990794       8.11957854      12.44334406       44      -0.49993092      -0.67905176       0.12328983
C        6.89589534       5.81790376       2.71031142       45      -0.00960706      -1.64010370      -1.91606879
C        7.42450137       6.95364829      11.68484980       46      -0.49430704       1.00702882       0.72338825
C        7.20552827       6.90968702       3.46749063       47       0.19318929       0.52580684       2.88088536
C        7.11998334       5.74639646      12.34095797       48       0.00628325       0.85253084      -4.35557270
C        7.43959062       8.16071978       2.96530929       49       0.50696659      -0.01375184      -1.69087589
C        7.14625613       5.57457276      13.67017551       50      -0.15843722      -1.08170664       1.24920177
C        7.09703030       7.21235558       0.75320704       51       0.49773508       1.14696145      -2.62188339
C        7.46925836       8.33740029       1.57214320       52      -1.14749002      -1.41399121       0.03420290
C        7.76572939       8.01290595      13.88927577       53      -0.18219516      -2.27697825      -0.90183687
C        6.84589616       5.96137708       1.26338125       54      -0.77882993      -2.92390227       1.38542318
C        6.84027251       4.27703706      14.19427225       55       1.02749956       1.72952974       4.29071712
C        7.64375894       9.55259640       0.94447717       56       0.47492713       2.75906372      -1.03882706