64
Lattice="5.51864032 0.0 0.0 -6.732662250596575e-05 7.322433739690481 0.0 -0.00015508461562353194 -4.03657993636837e-06 16.925131319288997" Properties=species:S:1:pos:R:3:spacegroup_kinds:I:1:forces:R:3 spacegroup="P 1" unit_cell=conventional occupancy="_JSON {\"0\": {\"Cu\": 1}, \"1\": {\"Cu\": 1}, \"2\": {\"Cu\": 1}, \"3\": {\"Cu\": 1}, \"4\": {\"H\": 1}, \"5\": {\"H\": 1}, \"6\": {\"H\": 1}, \"7\": {\"H\": 1}, \"8\": {\"H\": 1}, \"9\": {\"H\": 1}, \"10\": {\"H\": 1}, \"11\": {\"H\": 1}, \"12\": {\"H\": 1}, \"13\": {\"H\": 1}, \"14\": {\"H\": 1}, \"15\": {\"H\": 1}, \"16\": {\"H\": 1}, \"17\": {\"H\": 1}, \"18\": {\"H\": 1}, \"19\": {\"H\": 1}, \"20\": {\"H\": 1}, \"21\": {\"H\": 1}, \"22\": {\"H\": 1}, \"23\": {\"H\": 1}, \"24\": {\"H\": 1}, \"25\": {\"H\": 1}, \"26\": {\"H\": 1}, \"27\": {\"H\": 1}, \"28\": {\"H\": 1}, \"29\": {\"H\": 1}, \"30\": {\"H\": 1}, \"31\": {\"H\": 1}, \"32\": {\"C\": 1}, \"33\": {\"C\": 1}, \"34\": {\"C\": 1}, \"35\": {\"C\": 1}, \"36\": {\"C\": 1}, \"37\": {\"C\": 1}, \"38\": {\"C\": 1}, \"39\": {\"C\": 1}, \"40\": {\"C\": 1}, \"41\": {\"C\": 1}, \"42\": {\"C\": 1}, \"43\": {\"C\": 1}, \"44\": {\"C\": 1}, \"45\": {\"C\": 1}, \"46\": {\"C\": 1}, \"47\": {\"C\": 1}, \"48\": {\"C\": 1}, \"49\": {\"C\": 1}, \"50\": {\"C\": 1}, \"51\": {\"C\": 1}, \"52\": {\"C\": 1}, \"53\": {\"C\": 1}, \"54\": {\"C\": 1}, \"55\": {\"C\": 1}, \"56\": {\"N\": 1}, \"57\": {\"N\": 1}, \"58\": {\"N\": 1}, \"59\": {\"N\": 1}, \"60\": {\"Cl\": 1}, \"61\": {\"Cl\": 1}, \"62\": {\"Cl\": 1}, \"63\": {\"Cl\": 1}}" energy=-377.666748046875 free_energy=-377.666748046875 stress="-0.0006632302538491786 -0.0027129685040563345 0.0003241579979658127 -0.0027129685040563345 0.0018798626260831952 0.001418647705577314 0.0003241579979658127 0.001418647705577314 0.0011145987082272768" pbc="T T T"
Cu       0.24809097       4.36771416       5.49454828        0       0.23280583      -0.11165249      -0.01621328
Cu       5.28563580       6.60603417      13.94718225        1      -0.31015411       0.13241696       0.05932012
Cu       2.53165266       0.66776534      11.41598120        2      -0.62301123       0.32076755       0.21141775
Cu       2.99284627       2.99216552       2.98996540        3       0.68259859      -0.27651936       0.12736765
H        1.87299641       2.13011761       7.67233506        4      -0.08058241      -0.18315831      -0.24356335
H        3.62356091       1.55764536      16.14553503        5       1.21184814       0.82332718      -0.83386910
H        0.87212295       5.78263697       9.24967481        6       0.37169039      -0.27534413       0.17306170
H        4.61654560       5.24848691       0.82832974        7       0.83566761      -0.79460090      -0.81522799
H        4.00832067       3.03935826      11.16190178        8      -0.22685179       0.55950421      -0.75160468
H        1.51879231       0.61168477       2.69540543        9       0.22415735      -0.26931590      -0.69455040
H        4.28726380       6.71930156       5.76137038       10       0.11966801       0.19628820       0.16337386
H        1.27254699       4.22704131      14.26821347       11      -0.02492595       0.53516352      -0.52198344
H        3.08467686       4.55583411      10.76919687       12       0.51608890      -0.50550622      -0.30536687
H        2.43328300       6.46061673       2.30710588       13      -0.41686106       0.58872485      -0.49096358
H        5.19514018       0.88959190       6.15167140       14      -0.16159454      -0.14301866       0.02684949
H        0.36379948       2.78829195      14.66888569       15      -0.15332864      -0.11344631      -0.15679358
H        4.39670533       3.97949265       9.63662272       16       0.15737922       0.17195573       0.22915037
H        1.09626348       6.99878154       1.22009568       17      -0.12439781      -0.05315861      -0.24422415
H        3.86498260       0.33369111       7.24737133       18       0.60414380      -0.12544118      -0.61726367
H        1.64225056       3.36408829      15.70227271       19       0.04143938      -0.09612569       0.16923241
H        0.76829889       1.64971717       9.69073218       20      -0.12596500       0.05071770      -0.14520423
H        4.72124688       2.00034418       1.22962398       21       0.58478177       0.32043415      -0.31488535
H        2.00147096       5.31739385       7.19781853       22       1.10197020      -0.75508767       1.12248218
H        3.51725931       5.67620493      15.66597872       23      -0.27268156       0.00464743       0.23625410
H        0.35070519       1.96608861      12.09037387       24      -0.41016361      -0.05779757       0.34934002
H        5.15552288       1.72367682       3.63193638       25       0.68137002       0.04775013       0.45485240
H        2.36587949       5.58212311       4.78593660       26      -0.76602352       0.56654763       0.47297540
H        3.13903770       5.37607782      13.24979548       27       0.03872958      -0.13467836      -0.01386145
H        1.86724031       3.05571176      12.25052858       28      -0.14426279       0.22554764       0.18809706
H        3.62260536       0.59830669       3.78924760       29       0.74408227       0.28202823      -0.15593590
H        0.87374066       6.70119534       4.67547132       30      -0.05885863       0.43049461       0.06683585
H        4.65628607       4.29679787      13.12379443       31      -0.12328505      -0.33092588      -0.06126319
C        3.69211823       3.18996295       7.43810012       32       0.93732959       0.23124230      -1.16407704
C        1.87418070       0.51553295      15.85798186       33      -1.85090709      -1.06872654      -1.43130016
C        4.61504474       6.83956080       9.50223417       34      -1.04000676       0.35298780       0.94165242
C        0.93469361       4.16816058       1.07702052       35      -0.99342239       0.26519457      -0.72665691
C        2.66075315       2.66811988       8.18538668       36      -0.47363064       0.07518193       0.34745109
C        2.90368480       0.97853481      16.63832564       37      -0.40640280      -0.05177988       0.63791871
C        0.10834864       6.34558586       8.74208306       38       0.50486130       0.05065967      -1.71087432
C        5.39124869       4.63095190       0.26209574       39      -0.33488283       0.90443921       2.06223392
C        2.56831924       2.84686966       9.54152236       40       0.14708954       0.06744552       1.18221068
C        2.95949518       0.85727908       1.07343686       41      -0.90048879      -0.94818914       1.20507300
C        0.15447757       6.51868545       7.35876924       42       2.03571558      -1.47369766       0.63989353
C        5.35029899       4.47538324      15.84848301       43      -1.88831472       1.00783157      -1.52149963
C        3.60001513       3.66892888      10.31096532       44      -0.89776886      -0.55222529       0.59177876
C        1.92609601       0.02343917       1.82200145       45       0.88180107       0.18046874       1.31840968
C        4.71259810       7.32084995       6.59119138       46      -1.14364624       0.44757631       0.05832097
C        0.80692598       3.69570946      15.08413939       47       0.83790725      -0.95367479       0.17001873
C        1.50187544       2.20441305      10.27377284       48       0.22176057       0.25486708       1.29924536
C        3.99987273       1.47630166       1.82872067       49       0.04925422      -0.17244020       1.17102957
C        1.27173201       5.82415222       6.64921356       50      -2.57953739       1.97220981      -0.91446447
C        4.23503859       5.11504941      15.08084599       51       1.35439134      -0.50634098       0.36606476
C        1.27407127       2.33995111      11.68913233       52       1.09503460      -0.44318175      -2.03502607
C        4.25511008       1.32235571       3.22677662       53      -2.03284931      -0.17357543      -1.51269710
C        1.44576528       6.00967504       5.28160668       54       1.17623329      -1.15177453      -0.61064792
C        4.04999681       4.98381920      13.70893659       55       0.13653117       0.28722858       0.24512036
N        4.55371075       3.57670565       6.72241112       56      -0.49314931      -0.14122960       0.32951340
N        0.99107003       0.08450769      15.17645981       57       1.17083275       0.56904352       0.72401649
N        3.72486287       7.20570888      10.18333680       58       0.02759004       0.12139767       0.14618731
N        1.78783442       3.76504190       1.76651097       59       0.41614574      -0.18260399       0.47141761
Cl       4.40865422       4.82523609       3.60446743       60      -0.08742182       0.00854973       0.07244971
Cl       1.10461901       6.16970982      12.06052934       61       0.11902820      -0.02260822       0.02916872
Cl       3.85640844       1.13000969      13.32809925       62       0.11765173       0.01232713      -0.11909429
Cl       1.69872222       2.50007973       4.83416277       63      -0.23220304       0.00285937       0.06932581
64
Lattice="5.51864032 0.0 0.0 -6.732662250596575e-05 7.322433739690481 0.0 -0.00015508461562353194 -4.03657993636837e-06 16.925131319288997" Properties=species:S:1:pos:R:3:spacegroup_kinds:I:1:forces:R:3 spacegroup="P 1" unit_cell=conventional occupancy="_JSON {\"0\": {\"Cu\": 1}, \"1\": {\"Cu\": 1}, \"2\": {\"Cu\": 1}, \"3\": {\"Cu\": 1}, \"4\": {\"H\": 1}, \"5\": {\"H\": 1}, \"6\": {\"H\": 1}, \"7\": {\"H\": 1}, \"8\": {\"H\": 1}, \"9\": {\"H\": 1}, \"10\": {\"H\": 1}, \"11\": {\"H\": 1}, \"12\": {\"H\": 1}, \"13\": {\"H\": 1}, \"14\": {\"H\": 1}, \"15\": {\"H\": 1}, \"16\": {\"H\": 1}, \"17\": {\"H\": 1}, \"18\": {\"H\": 1}, \"19\": {\"H\": 1}, \"20\": {\"H\": 1}, \"21\": {\"H\": 1}, \"22\": {\"H\": 1}, \"23\": {\"H\": 1}, \"24\": {\"H\": 1}, \"25\": {\"H\": 1}, \"26\": {\"H\": 1}, \"27\": {\"H\": 1}, \"28\": {\"H\": 1}, \"29\": {\"H\": 1}, \"30\": {\"H\": 1}, \"31\": {\"H\": 1}, \"32\": {\"C\": 1}, \"33\": {\"C\": 1}, \"34\": {\"C\": 1}, \"35\": {\"C\": 1}, \"36\": {\"C\": 1}, \"37\": {\"C\": 1}, \"38\": {\"C\": 1}, \"39\": {\"C\": 1}, \"40\": {\"C\": 1}, \"41\": {\"C\": 1}, \"42\": {\"C\": 1}, \"43\": {\"C\": 1}, \"44\": {\"C\": 1}, \"45\": {\"C\": 1}, \"46\": {\"C\": 1}, \"47\": {\"C\": 1}, \"48\": {\"C\": 1}, \"49\": {\"C\": 1}, \"50\": {\"C\": 1}, \"51\": {\"C\": 1}, \"52\": {\"C\": 1}, \"53\": {\"C\": 1}, \"54\": {\"C\": 1}, \"55\": {\"C\": 1}, \"56\": {\"N\": 1}, \"57\": {\"N\": 1}, \"58\": {\"N\": 1}, \"59\": {\"N\": 1}, \"60\": {\"Cl\": 1}, \"61\": {\"Cl\": 1}, \"62\": {\"Cl\": 1}, \"63\": {\"Cl\": 1}}" energy=-376.59747314453125 free_energy=-376.59747314453125 stress="-0.005742006469517946 -0.0014182048616930842 7.197255854407558e-06 -0.0014182048616930842 0.0016395353013649583 0.0030015252996236086 7.197255854407558e-06 0.0030015252996236086 0.000916647317353636" pbc="T T T"
Cu       0.22455376       4.39390027       5.52219685        0       0.29491937      -0.18766066       0.03192367
Cu       5.27666316       6.62346426      13.95260657        1      -0.32993394      -0.01668391       0.00489311
Cu       2.53309672       0.66757561      11.42886258        2      -0.52376890       0.20517138       0.08319104
Cu       2.99633611       2.96770107       2.97013762        3       0.58106250      -0.16324809       0.15995230
H        1.87781533       2.13508325       7.65525775        4      -0.21870667      -0.34526661      -0.14125751
H        3.60749526       1.57098463      16.12204712        5       1.04431105       0.76439542      -0.67838234
H        0.86114584       5.78847091       9.22229010        6       0.39520961      -0.28673208       0.15139450
H        4.58845990       5.27731619       0.83413047        7       1.22460449      -1.26815498      -1.02526629
H        4.01916711       3.01818793      11.14340036        8      -0.27606601       0.74169457      -0.82708740
H        1.53005500       0.63167324       2.72424710        9       0.47846413      -0.91428196      -1.50255799
H        4.25844247       6.74508234       5.77370953       10       0.10801569       0.00261427       0.09305217
H        1.25382222       4.20864291      14.23932568       11      -0.03532432       0.24767169       0.00223228
H        3.09703323       4.54177013      10.78728905       12       0.21254030       0.08188320      -0.00164334
H        2.40965108       6.44130575       2.27813383       13      -0.14971161       0.45392585      -0.36120093
H        5.18499253       0.88089133       6.13937927       14      -0.32999828      -0.19943902       0.22718115
H        0.34483231       2.79742690      14.65491467       15      -0.09914312      -0.29630381       0.05077804
H        4.36777439       3.98891716       9.63752665       16       0.70276934       0.41639590      -0.19098462
H        1.07438615       6.97915236       1.21787514       17       0.07522766       0.18885082      -0.19176163
H        3.83918980       0.33120076       7.23912117       18       0.32435340       0.10374048      -0.21904995
H        1.62475621       3.37263763      15.68948104       19       1.64952064      -0.80436707       1.27986193
H        0.78596929       1.63278485       9.68113846       20       0.13502863       0.36103734       0.12007880
H        4.70702078       2.01469303       1.23579803       21       1.01482415       0.60012943      -0.56568879
H        2.00131394       5.29241294       7.21044046       22       1.65787315      -1.15077031       1.65976048
H        3.53261818       5.66163581      15.64070961       23      -0.91606951       0.38242888       0.66723377
H        0.36759029       1.98428598      12.08603672       24      -1.75150180      -0.56773990       0.92340589
H        5.16197415       1.69441570       3.63295547       25       1.93976164       0.56877446       1.04599369
H        2.39328735       5.56393318       4.75744489       26      -1.61502135       0.97266173       1.06031990
H        3.12997404       5.35424213      13.23412656       27       0.77350140      -0.36704111       0.34528768
H        1.89301050       3.02863199      12.23947983       28      -0.17580080       0.37386519       0.45380211
H        3.61057711       0.58379542       3.79340616       29       1.18587482       0.67825592      -0.30686802
H        0.84952624       6.67963829       4.68331990       30       0.13924882       0.34719890       0.34163830
H        4.63366798       4.27566058      13.10366179       31       0.36584169      -0.64281404      -0.26533824
C        3.68190458       3.17465799       7.45152703       32       1.06087184       0.20317757      -1.05252552
C        1.90028353       0.51269151      15.83011867       33      -3.15167236      -1.45473993      -1.90934813
C        4.63865948       6.81554406       9.51633703       34      -2.27543473       1.00562096       1.60206854
C        0.90896309       4.18108304       1.10081481       35      -1.77414596       0.50579000      -1.43947184
C        2.65474129       2.64001402       8.20919702       36      -0.09086783       0.39743268      -0.97516632
C        2.87691956       1.00429457      16.62780872       37       0.69192487       0.37394342       0.68806744
C        0.08348571       6.35235913       8.73344923       38       1.78156650      -0.65686399      -1.83141923
C        5.37925059       4.60904572       0.28334724       39      -1.25894904       1.90043294       1.09665990
C        2.54131760       2.85601785       9.53882640       40       1.11186910       0.74935389       2.09077787
C        2.96429359       0.88510504       1.06000753       41      -1.42138219      -1.62478113       1.75002408
C        0.12616927       6.53460532       7.36625758       42       2.83039379      -2.07225657       0.34527045
C        5.36545801       4.50201901      15.84563462       43      -1.62790060       0.03317266      -0.98230922
C        3.60270164       3.68994854      10.31910717       44      -1.43982434      -1.84778547       0.46036419
C        1.92386655       0.00604639       1.80410421       45       0.61588681       1.27016103       1.80668414
C        4.68601264       7.32713023       6.61049266       46      -0.69471538       0.64009315      -0.79066610
C        0.83162909       3.66690094      15.09632340       47      -1.32330799       0.88581496      -1.38368607
C        1.50962184       2.22877019      10.26732487       48      -1.07920516      -0.72394896       1.99950695
C        4.00171394       1.49705409       1.83348098       49      -0.26022959      -0.53259701       1.68840075
C        1.29680418       5.81080828       6.67845273       50      -4.02502346       3.00145292      -1.79188538
C        4.22103729       5.08743545      15.07605714       51       2.45962048      -0.70909715       0.02541204
C        1.27176227       2.31958350      11.71212671       52       2.71456528       0.13032001      -3.42557955
C        4.27735998       1.32863200       3.25507865       53      -4.05270720      -1.09185195      -2.69681883
C        1.44837240       6.01266671       5.30867098       54       1.91742539      -1.54566002      -1.27766061
C        4.07814686       4.96837096      13.69934400       55      -1.30271089       0.95347768       0.10796665
N        4.55614181       3.56793833       6.75199951       56      -0.69791102      -0.22014546       0.40164143
N        0.98011206       0.09437301      15.17294236       57       1.79509723       0.72882468       0.99821877
N        3.72835349       7.19969421      10.15975635       58      -0.21273078       0.22952354       0.50343829
N        1.77166557       3.75610440       1.73902475       59       1.78965664      -0.82542998       1.57049727
Cl       4.41209123       4.82902800       3.61454530       60      -0.09699692       0.00647587       0.07531253
Cl       1.08966993       6.15920799      12.08243387       61       0.16199400      -0.01264924      -0.03928544
Cl       3.84487976       1.13576866      13.33279103       62       0.16214342       0.00665838      -0.10405590
Cl       1.68637554       2.48301384       4.81836039       63      -0.18920749       0.01588838       0.06467409
64
Lattice="5.51864032 0.0 0.0 -6.732662250596575e-05 7.322433739690481 0.0 -0.00015508461562353194 -4.03657993636837e-06 16.925131319288997" Properties=species:S:1:pos:R:3:spacegroup_kinds:I:1:forces:R:3 spacegroup="P 1" unit_cell=conventional occupancy="_JSON {\"0\": {\"Cu\": 1}, \"1\": {\"Cu\": 1}, \"2\": {\"Cu\": 1}, \"3\": {\"Cu\": 1}, \"4\": {\"H\": 1}, \"5\": {\"H\": 1}, \"6\": {\"H\": 1}, \"7\": {\"H\": 1}, \"8\": {\"H\": 1}, \"9\": {\"H\": 1}, \"10\": {\"H\": 1}, \"11\": {\"H\": 1}, \"12\": {\"H\": 1}, \"13\": {\"H\": 1}, \"14\": {\"H\": 1}, \"15\": {\"H\": 1}, \"16\": {\"H\": 1}, \"17\": {\"H\": 1}, \"18\": {\"H\": 1}, \"19\": {\"H\": 1}, \"20\": {\"H\": 1}, \"21\": {\"H\": 1}, \"22\": {\"H\": 1}, \"23\": {\"H\": 1}, \"24\": {\"H\": 1}, \"25\": {\"H\": 1}, \"26\": {\"H\": 1}, \"27\": {\"H\": 1}, \"28\": {\"H\": 1}, \"29\": {\"H\": 1}, \"30\": {\"H\": 1}, \"31\": {\"H\": 1}, \"32\": {\"C\": 1}, \"33\": {\"C\": 1}, \"34\": {\"C\": 1}, \"35\": {\"C\": 1}, \"36\": {\"C\": 1}, \"37\": {\"C\": 1}, \"38\": {\"C\": 1}, \"39\": {\"C\": 1}, \"40\": {\"C\": 1}, \"41\": {\"C\": 1}, \"42\": {\"C\": 1}, \"43\": {\"C\": 1}, \"44\": {\"C\": 1}, \"45\": {\"C\": 1}, \"46\": {\"C\": 1}, \"47\": {\"C\": 1}, \"48\": {\"C\": 1}, \"49\": {\"C\": 1}, \"50\": {\"C\": 1}, \"51\": {\"C\": 1}, \"52\": {\"C\": 1}, \"53\": {\"C\": 1}, \"54\": {\"C\": 1}, \"55\": {\"C\": 1}, \"56\": {\"N\": 1}, \"57\": {\"N\": 1}, \"58\": {\"N\": 1}, \"59\": {\"N\": 1}, \"60\": {\"Cl\": 1}, \"61\": {\"Cl\": 1}, \"62\": {\"Cl\": 1}, \"63\": {\"Cl\": 1}}" energy=-375.39849853515625 free_energy=-375.39849853515625 stress="-0.0014074041973799467 -0.004771252162754536 -0.0020951488986611366 -0.004771252162754536 0.003224724903702736 0.0010959620121866465 -0.0020951488986611366 0.0010959620121866465 -0.00026378282927908003" pbc="T T T"
Cu       0.23213973       4.40133442       5.51956850        0       0.22165902      -0.27070323       0.03673783
Cu       5.25645441       6.60279885      13.98106927        1      -0.13009316       0.06485769      -0.04281492
Cu       2.55181469       0.65548666      11.40559216        2      -0.67511630       0.32679397       0.16092315
Cu       2.99144780       2.98853203       2.98894104        3       0.83158642      -0.40734783       0.16982076
H        1.90038882       2.15786706       7.64473381        4      -1.90774941      -1.38821161      -1.25682104
H        3.61362748       1.55632313      16.11284556        5       0.73450279       0.55074513      -0.48165822
H        0.87794370       5.80642632       9.19918738        6       1.19654083      -0.84685999       0.77169847
H        4.58184488       5.30399713       0.82886274        7       1.65689182      -1.74572182      -1.23024786
H        3.99778410       3.02793286      11.15584196        8       0.09293874       0.38163960      -0.72670037
H        1.54266018       0.64343792       2.71456312        9       0.42894536      -1.12435889      -1.57436955
H        4.28193368       6.76547354       5.74864963       10      -0.20569304      -0.32393295       0.16974664
H        1.25856129       4.23573925      14.26318548       11      -0.05780776      -0.23142177       0.28863597
H        3.06869976       4.53237004      10.78626567       12       0.73915243      -0.77460527      -0.50209588
H        2.39205211       6.45681570       2.29610001       13       0.38924745      -0.55438221       0.07118581
H        5.15808204       0.89664954       6.12056779       14      -0.52817237      -1.09581709       0.91765392
H        0.32143197       2.82657109      14.65099197       15      -0.00304063      -0.57517648      -0.00302023
H        4.33909925       4.01168317       9.65188344       16       2.09338808       0.86531103      -1.17767882
H        1.10018258       6.98649929       1.20254156       17      -0.17643289       0.01291241      -0.30922389
H        3.82663434       0.35991059       7.26654656       18       0.53054309      -0.33170205      -0.57355380
H        1.65350554       3.34783245      15.66177824       19       2.65714097      -1.25583947       2.17588902
H        0.81060294       1.66114347       9.66287461       20      -0.41666543       0.07577842       0.03971552
H        4.72875897       2.01778325       1.21768857       21       0.78963697       0.36644706      -0.32092491
H        1.97272754       5.28093637       7.23984473       22       1.48366821      -0.95599186       1.33500171
H        3.53627259       5.65262497      15.64971315       23      -2.11262774       1.32227385       1.60069299
H        0.38828555       1.97682707      12.06411871       24      -2.49914193      -0.87836587       1.31739986
H        5.18336177       1.68656772       3.66141753       25       0.71762908       0.04274362       0.46498886
H        2.37081454       5.53595926       4.73456157       26      -1.77412391       1.12857842       1.32969069
H        3.15702632       5.36793411      13.26343998       27       0.73049355      -0.52077144       0.20718963
H        1.89001271       3.02740034      12.26741608       28      -0.14629695       0.30912215       0.41560283
H        3.62014139       0.60809896       3.79595371       29       0.52348447      -0.10819377       0.09577794
H        0.82427880       6.70284582       4.69588890       30       0.61086237      -0.22820131       0.80088747
H        4.60767363       4.26271406      13.11419816       31       0.97888041      -1.35593772      -0.68176812
C        3.69612805       3.17740317       7.44387094       32       0.89235216      -0.04998031      -1.12515306
C        1.91647236       0.50595673      15.82123436       33      -4.36766052      -1.80641389      -2.46631002
C        4.66608735       6.82557219       9.49391380       34      -4.42542219       1.75139594       3.57007980
C        0.89498144       4.17350153       1.11801560       35       0.99952722      -0.82526708       0.44275379
C        2.63299841       2.61221594       8.19589261       36       2.77635336       2.08487797      -0.86973953
C        2.86864753       0.99792299      16.63173370       37       1.40757990       0.76420981       0.64543140
C        0.10524769       6.34647779       8.74282814       38       1.38906884      -0.42592356      -1.96459007
C        5.39455935       4.58690949       0.27514959       39      -1.89329231       2.73798203       1.70822394
C        2.57109694       2.85068826       9.51019251       40      -0.13957968       0.18778124       3.54898286
C        2.99324908       0.89167185       1.07096499       41      -2.42825460      -2.57779145       1.04048669
C        0.11721414       6.51275304       7.39587242       42       2.77670527      -1.31639242      -1.59664333
C        5.38518426       4.52802038      15.83800139       43      -1.41290987      -0.58196431      -0.55261260
C        3.62989412       3.66267343      10.30526833       44      -3.66710186      -0.94629180       1.66313982
C        1.93587628      -0.02205222       1.80855085       45       0.60922271       3.06353211       1.50303411
C        4.66356104       7.29827698       6.62796557       46      -0.08283049       1.93865776      -0.70676249
C        0.86111382       3.63959698      15.12205320       47      -2.97342968       2.63324261      -2.94473672
C        1.49005446       2.25259961      10.27266598       48       0.54657525      -0.18015254       1.74499106
C        4.02575272       1.47045605       1.80937564       49       0.44094580       0.02679062       2.63118219
C        1.31333156       5.83819115       6.67308528       50      -4.05605507       2.24851608      -0.09197035
C        4.20394965       5.11275007      15.10422536       51       4.46878147      -2.29812694      -1.71626520
C        1.28656778       2.31123783      11.72925558       52       3.22591138       0.47511581      -4.16606140
C        4.27573492       1.30318269       3.25968316       53      -2.15248680       0.51151192      -3.02761555
C        1.43316860       6.00312645       5.33043286       54       1.93370438      -0.73261297      -3.14852810
C        4.09518986       4.94137933      13.71600551       55      -2.34161186       2.22895193       1.04578602
N        4.58525481       3.56384545       6.74654036       56      -1.39365876      -0.52173054       0.97652519
N        0.96005590       0.10833845      15.17056582       57       2.72235513       0.99702621       1.53836286
N        3.73716322       7.17706113      10.17161154       58       1.39441919      -0.33006242      -0.82376808
N        1.79331460       3.74198389       1.76751577       59      -0.95807147       0.51645195      -0.44117048
Cl       4.43546123       4.83629409       3.64028658       60      -0.14170446       0.00830644      -0.00718811
Cl       1.11647924       6.17897557      12.05807072       61       0.07205292      -0.05359077       0.05953278
Cl       3.81692277       1.13597231      13.31830782       62       0.24175254       0.01497306      -0.05872357
Cl       1.71312850       2.49786004       4.83019192       63      -0.23746975      -0.01668395       0.10096336
64
Lattice="5.51864032 0.0 0.0 -6.732662250596575e-05 7.322433739690481 0.0 -0.00015508461562353194 -4.03657993636837e-06 16.925131319288997" Properties=species:S:1:pos:R:3:spacegroup_kinds:I:1:forces:R:3 spacegroup="P 1" unit_cell=conventional occupancy="_JSON {\"0\": {\"Cu\": 1}, \"1\": {\"Cu\": 1}, \"2\": {\"Cu\": 1}, \"3\": {\"Cu\": 1}, \"4\": {\"H\": 1}, \"5\": {\"H\": 1}, \"6\": {\"H\": 1}, \"7\": {\"H\": 1}, \"8\": {\"H\": 1}, \"9\": {\"H\": 1}, \"10\": {\"H\": 1}, \"11\": {\"H\": 1}, \"12\": {\"H\": 1}, \"13\": {\"H\": 1}, \"14\": {\"H\": 1}, \"15\": {\"H\": 1}, \"16\": {\"H\": 1}, \"17\": {\"H\": 1}, \"18\": {\"H\": 1}, \"19\": {\"H\": 1}, \"20\": {\"H\": 1}, \"21\": {\"H\": 1}, \"22\": {\"H\": 1}, \"23\": {\"H\": 1}, \"24\": {\"H\": 1}, \"25\": {\"H\": 1}, \"26\": {\"H\": 1}, \"27\": {\"H\": 1}, \"28\": {\"H\": 1}, \"29\": {\"H\": 1}, \"30\": {\"H\": 1}, \"31\": {\"H\": 1}, \"32\": {\"C\": 1}, \"33\": {\"C\": 1}, \"34\": {\"C\": 1}, \"35\": {\"C\": 1}, \"36\": {\"C\": 1}, \"37\": {\"C\": 1}, \"38\": {\"C\": 1}, \"39\": {\"C\": 1}, \"40\": {\"C\": 1}, \"41\": {\"C\": 1}, \"42\": {\"C\": 1}, \"43\": {\"C\": 1}, \"44\": {\"C\": 1}, \"45\": {\"C\": 1}, \"46\": {\"C\": 1}, \"47\": {\"C\": 1}, \"48\": {\"C\": 1}, \"49\": {\"C\": 1}, \"50\": {\"C\": 1}, \"51\": {\"C\": 1}, \"52\": {\"C\": 1}, \"53\": {\"C\": 1}, \"54\": {\"C\": 1}, \"55\": {\"C\": 1}, \"56\": {\"N\": 1}, \"57\": {\"N\": 1}, \"58\": {\"N\": 1}, \"59\": {\"N\": 1}, \"60\": {\"Cl\": 1}, \"61\": {\"Cl\": 1}, \"62\": {\"Cl\": 1}, \"63\": {\"Cl\": 1}}" energy=-374.6519775390625 free_energy=-374.6519775390625 stress="0.005822611041367054 -0.000531176570802927 -0.00017003741231746972 -0.000531176570802927 0.006427258253097534 0.0012482128804549575 -0.00017003741231746972 0.0012482128804549575 0.0006481960881501436" pbc="T T T"
Cu       0.23294338       4.39009152       5.52773436        0       0.24185732      -0.14035660      -0.02168185
Cu       5.27813088       6.60279247      13.99420637        1      -0.33049759      -0.04271865      -0.09577438
Cu       2.55850979       0.64020001      11.38116825        2      -0.78896785       0.49762183       0.33166245
Cu       3.01300607       3.00217384       3.00376080        3       0.73179519      -0.29497638       0.01044364
H        1.88711223       2.17274142       7.65875645        4      -1.40978456      -1.12294054      -1.03762674
H        3.63877673       1.54740796      16.13326061        5       1.15824914       0.85002661      -0.70456529
H        0.89535042       5.82530178       9.22617682        6       0.75104177      -0.50756103       0.22255684