90
Lattice="9.42862866 0.0 0.0 -1.0091678043639387 10.090683653490272 0.0 -2.1320097477294917 -5.239895251523266 10.430569364486121" Properties=species:S:1:pos:R:3:spacegroup_kinds:I:1:forces:R:3 spacegroup="P 1" unit_cell=conventional occupancy="_JSON {\"0\": {\"Cu\": 1}, \"1\": {\"Cu\": 1}, \"2\": {\"P\": 1}, \"3\": {\"P\": 1}, \"4\": {\"P\": 1}, \"5\": {\"P\": 1}, \"6\": {\"H\": 1}, \"7\": {\"H\": 1}, \"8\": {\"H\": 1}, \"9\": {\"H\": 1}, \"10\": {\"H\": 1}, \"11\": {\"H\": 1}, \"12\": {\"H\": 1}, \"13\": {\"H\": 1}, \"14\": {\"H\": 1}, \"15\": {\"H\": 1}, \"16\": {\"H\": 1}, \"17\": {\"H\": 1}, \"18\": {\"H\": 1}, \"19\": {\"H\": 1}, \"20\": {\"H\": 1}, \"21\": {\"H\": 1}, \"22\": {\"H\": 1}, \"23\": {\"H\": 1}, \"24\": {\"H\": 1}, \"25\": {\"H\": 1}, \"26\": {\"H\": 1}, \"27\": {\"H\": 1}, \"28\": {\"H\": 1}, \"29\": {\"H\": 1}, \"30\": {\"H\": 1}, \"31\": {\"H\": 1}, \"32\": {\"H\": 1}, \"33\": {\"H\": 1}, \"34\": {\"H\": 1}, \"35\": {\"H\": 1}, \"36\": {\"H\": 1}, \"37\": {\"H\": 1}, \"38\": {\"C\": 1}, \"39\": {\"C\": 1}, \"40\": {\"C\": 1}, \"41\": {\"C\": 1}, \"42\": {\"C\": 1}, \"43\": {\"C\": 1}, \"44\": {\"C\": 1}, \"45\": {\"C\": 1}, \"46\": {\"C\": 1}, \"47\": {\"C\": 1}, \"48\": {\"C\": 1}, \"49\": {\"C\": 1}, \"50\": {\"C\": 1}, \"51\": {\"C\": 1}, \"52\": {\"C\": 1}, \"53\": {\"C\": 1}, \"54\": {\"C\": 1}, \"55\": {\"C\": 1}, \"56\": {\"C\": 1}, \"57\": {\"C\": 1}, \"58\": {\"C\": 1}, \"59\": {\"C\": 1}, \"60\": {\"C\": 1}, \"61\": {\"C\": 1}, \"62\": {\"C\": 1}, \"63\": {\"C\": 1}, \"64\": {\"C\": 1}, \"65\": {\"C\": 1}, \"66\": {\"C\": 1}, \"67\": {\"C\": 1}, \"68\": {\"C\": 1}, \"69\": {\"C\": 1}, \"70\": {\"C\": 1}, \"71\": {\"C\": 1}, \"72\": {\"N\": 1}, \"73\": {\"N\": 1}, \"74\": {\"N\": 1}, \"75\": {\"N\": 1}, \"76\": {\"N\": 1}, \"77\": {\"N\": 1}, \"78\": {\"O\": 1}, \"79\": {\"O\": 1}, \"80\": {\"O\": 1}, \"81\": {\"O\": 1}, \"82\": {\"O\": 1}, \"83\": {\"O\": 1}, \"84\": {\"O\": 1}, \"85\": {\"O\": 1}, \"86\": {\"O\": 1}, \"87\": {\"O\": 1}, \"88\": {\"O\": 1}, \"89\": {\"O\": 1}}" energy=-599.3297119140625 free_energy=-599.3297119140625 stress="-0.008997233584523201 -0.0005635874113067985 -0.010013656690716743 -0.0005635874113067985 0.006020802538841963 -0.0002838436630554497 -0.010013656690716743 -0.0002838436630554497 -0.003478738246485591" pbc="T T T"
Cu      -0.29292046       6.47115750       4.13038056        0      -0.42398900       0.95250905       0.28672197
Cu       6.59702350      -1.62058142       6.29013827        1       0.21387276      -0.86414218      -0.39076924
P       -0.81153138      -0.76541864       3.72324332        2       1.83857393      -1.82002199       0.04224926
P        7.08189110       5.61587752       6.73903610        3      -1.26491404       1.01569188       0.50894970
P        3.64404578       4.46478465      10.14310880        4      -1.09141779       0.19226162       0.03212717
P        2.65141580       0.35699406       0.31470434        5       0.40471506       1.13576627       0.71595788
H        0.66914969      -1.04849608       5.97205995        6      -0.93491089       0.87300670      -0.51251572
H        5.62728087       5.89533824       4.48102883        7       0.80845100      -0.73849809       0.24029483
H        1.87907189      -0.30298732       8.00776089        8       0.14283077       0.04136026      -0.04744762
H        4.36072398       5.14984347       2.45269856        9       0.00774803      -0.07309279      -0.02073641
H        3.68910883      -1.82312603       8.93737239       10      -0.06835592       0.05217003      -0.16790031
H        2.58126700       6.66635851       1.53927583       11      -0.53901798      -0.34578899      -0.91227615
H        3.15923864       6.12927491       7.76240530       12      -0.12717775       0.20655648      -0.09454925
H        3.10272559      -1.25998764       2.64323182       13       0.94202697      -0.81599641       0.69072253
H        3.20549749       4.21638461       6.80355747       14       0.55314183      -0.10266978       0.58706564
H        3.03258114       0.66901143       3.60671112       15       0.49275631       0.02053026       0.60079837
H        1.94847837       2.13351877       3.15087801       16      -0.14049515       0.78400606       0.74558151
H        4.31152494       2.70445680       7.28463242       17       0.08149171      -1.24250197      -1.10214806
H        0.43656352       2.25168747       1.56732028       18       0.07403472      -0.12847702       0.07718495
H        5.87872723       2.59857876       8.85175457       19      -0.03927011       0.09520744      -0.14951275
H        7.85399369       2.46085423       0.00481701       20       0.10770802       0.51528394       0.36074692
H       -1.60902340       2.38894849      10.37447979       21      -0.08454908      -0.20027377       0.07118714
H        6.53934954       4.60180993       0.15036020       22      -0.23935686       0.13998330      -0.04974416
H       -0.21330320       0.25472311      10.29938283       23      -0.51799387       0.14812009      -0.49505028
H        7.16061119       6.35262300       1.80162225       24       0.03009885      -0.02716857       0.08075076
H       -0.86495904      -1.53571524       8.58388783       25      -0.38433444       1.23236573       0.21673222
H        6.56130329      -1.05471350       2.57471475       26       0.12423187       0.14155862      -0.28038940
H       -0.28988053       5.93604742       7.87555857       27      -0.22780868      -0.48503947       0.32664633
H        7.09894237       0.65567679       2.55209450       28       0.19139346      -0.91908503       0.09276433
H       -0.80800612       4.19159151       7.87312136       29       0.03988096       0.63071865       0.10736176
H        7.44718200       8.55543999       0.86439088       30       0.22293344       0.02828661       0.00635303
H       -1.20232347      -3.71573429       9.54058183       31       0.21694489      -0.22235925       0.17322461
H        8.80055365       0.19580090       0.84463381       32       0.66593230       0.53076410      -0.08379626
H       -2.51419309       4.65400459       9.62455420       33      -0.13756847      -0.19955957      -0.03259443
H        0.99835018       0.23944471       2.72854520       34      -0.79432458      -0.14778788       0.63766062
H        5.29008288       4.63421793       7.74219208       35       0.46201310       0.13643533      -0.27788234
H        3.71170108       8.79139629       0.06097110       36       1.02462602      -0.27427655      -0.03267887
H        2.52969713      -3.96984684      10.36924118       37       0.23555915       0.06210577      -0.02729424
C        1.47824564      -1.60494274       6.35072688       38       1.14735508      -0.94687682       0.80516922
C        4.85307767       6.46495946       4.03921244       39      -1.33820701       2.35767865       0.83153176
C        2.18456281      -1.22113187       7.50014191       40      -0.89795363       0.65755743      -0.12597139
C        4.11806532       6.09877777       2.93458679       41       0.40063334      -1.14703476      -0.82214105
C        3.15060002      -2.05035976       8.01234893       42       0.83419108      -0.87920660       0.15596355
C        3.13970358       6.91541308       2.40203859       43       0.06197235       1.25416827       1.51891375
C        3.42779699      -3.26776238       7.35276233       44       0.58353877       0.72880387       1.51480317
C        2.87182533       8.12859024       3.07956338       45      -2.02759099      -0.50467217      -3.10376263
C        1.68482077       6.49191641       6.25573863       46      -0.34254980      -0.66105574      -1.44470561
C        4.59439827      -1.64612981       4.16898475       47       0.97684342       1.76789248       2.49413538
C        1.85050730       5.23456085       5.50993979       48      -0.26303974      -0.68935335      -0.32166383
C        4.42982021      -0.35412237       4.92695992       49       0.14567056      -0.61119163      -1.18554282
C        2.68400973       4.15072363       5.87726378       50      -1.45431471       0.29715443      -1.74395967
C        3.63409706       0.73102759       4.53803296       51      -0.23374230      -0.93301553      -0.35380632
C        2.70939391       3.01341632       5.01239049       52       1.06610668      -0.19481656       1.93586326
C        3.57328382       1.82795647       5.39379707       53      -0.97565907       1.13482118      -1.15579438
C        1.91387829       2.97582116       3.88885499       54      -0.41104758      -0.09922323      -1.31860507
C        4.34332982       1.83933088       6.53375532       55       0.87538022       0.91335452       2.26546550
C        1.04938079       4.05000421       3.63017810       56      -0.58354515       0.09103869      -1.15355289
C        5.24138049       0.78418436       6.80391779       57      -0.18548810       0.76423067       0.49373752
C        0.04489557       4.13718732       2.52066307       58       0.70489037      -0.09956182       0.84423399
C        6.25553136       0.72799664       7.88927925       59      -0.76803648      -1.11054254      -1.21599269
C       -0.19809387       3.13094321       1.59182516       60      -0.44525337       0.00081284      -0.37414566
C        6.51754114       1.71891190       8.82062395       61      -1.45057237       0.65746814      -0.65864342
C        8.13098280       3.26238567       0.71678111       62       0.15566736       0.44617668       0.25868517
C       -1.88601667       1.58361223       9.69062225       63       2.12875175      -0.80877739       0.95381004
C        7.37865805       4.44461467       0.81683709       64       0.15145789      -0.83584195      -0.55739850
C       -1.07114608       0.42146556       9.60996523       65       0.16168256       0.74315608       0.88856387
C        7.73485148       5.42716010       1.73943463       66      -2.22738695       0.32308769      -1.91259301
C       -1.40582654      -0.54525007       8.69051470       67       0.54034281      -1.89749849      -0.13568732
C        7.46279581      -0.42257897       2.43895867       68      -1.38286424       1.42732656      -0.63013220
C       -1.15982987       5.24899620       8.04140981       69       1.03465366      -0.60436112      -0.52030843
C        7.01898611       9.55975395       1.00819420       70      -0.16459668      -1.18002117       0.67530894
C       -0.70663462      -4.70776287       9.44726701       71      -0.98998857       0.75840878      -0.24435280
N        1.74801435      -2.76452299       5.74754429       72      -0.27355683       0.04701293      -0.25325030
N        4.55282207       7.64870510       4.67962327       73       0.56036568      -1.49818635      -0.54750913
N        1.03730605       5.14260110       4.40543713       74       1.34184384      -0.50821978       1.14091706
N        5.24112814      -0.27531257       5.98218989       75      -0.13965774       0.18340802       0.46658754
N       -0.70658828       5.27713120       2.54148494       76       2.14597225      -0.64475751       1.69026434
N        6.97142676      -0.43838495       7.86924999       77       0.07452647       1.11045206       0.23388056
O       -1.27112063       7.86984053       3.31621145       78      -0.90979445       1.43590569       0.15024692
O        7.58830812      -3.03623200       7.11001643       79       0.50300455      -0.49074602       0.10198681
O        0.39318192       0.27721090       3.59756940       80       0.21655619      -0.10905385      -0.56245935
O        5.85613879       4.59664336       6.88110635       81       0.12332192       0.03566960       0.15401199
O        2.62070022       3.26346060      10.40252700       82      -0.51732475       0.36353925       0.06800047
O        3.69701116       1.56208271       0.06869966       83      -1.00086808      -0.21204962       0.18195918
O        4.31819882       4.23275099       8.80877597       84       0.26782405      -0.28766963      -0.22862467
O        1.94554168       0.64240071       1.66314460       85       0.41523129      -0.23958497      -0.80512857
O        3.96103328      -4.26769299      10.25733159       86       0.42134476      -0.14555958       0.07264466
O        2.33437968       9.11242577       0.15006529       87      -0.20160401      -0.43070501       0.13142563
O        8.06250243      -0.62793133       5.12041503       88       0.13711005       0.29611561      -0.06510463
O       -1.79061246       5.42985776       5.36304923       89       0.14292327      -0.35360658      -0.51107085
90
Lattice="9.42862866 0.0 0.0 -1.0091678043639387 10.090683653490272 0.0 -2.1320097477294917 -5.239895251523266 10.430569364486121" Properties=species:S:1:pos:R:3:spacegroup_kinds:I:1:forces:R:3 spacegroup="P 1" unit_cell=conventional occupancy="_JSON {\"0\": {\"Cu\": 1}, \"1\": {\"Cu\": 1}, \"2\": {\"P\": 1}, \"3\": {\"P\": 1}, \"4\": {\"P\": 1}, \"5\": {\"P\": 1}, \"6\": {\"H\": 1}, \"7\": {\"H\": 1}, \"8\": {\"H\": 1}, \"9\": {\"H\": 1}, \"10\": {\"H\": 1}, \"11\": {\"H\": 1}, \"12\": {\"H\": 1}, \"13\": {\"H\": 1}, \"14\": {\"H\": 1}, \"15\": {\"H\": 1}, \"16\": {\"H\": 1}, \"17\": {\"H\": 1}, \"18\": {\"H\": 1}, \"19\": {\"H\": 1}, \"20\": {\"H\": 1}, \"21\": {\"H\": 1}, \"22\": {\"H\": 1}, \"23\": {\"H\": 1}, \"24\": {\"H\": 1}, \"25\": {\"H\": 1}, \"26\": {\"H\": 1}, \"27\": {\"H\": 1}, \"28\": {\"H\": 1}, \"29\": {\"H\": 1}, \"30\": {\"H\": 1}, \"31\": {\"H\": 1}, \"32\": {\"H\": 1}, \"33\": {\"H\": 1}, \"34\": {\"H\": 1}, \"35\": {\"H\": 1}, \"36\": {\"H\": 1}, \"37\": {\"H\": 1}, \"38\": {\"C\": 1}, \"39\": {\"C\": 1}, \"40\": {\"C\": 1}, \"41\": {\"C\": 1}, \"42\": {\"C\": 1}, \"43\": {\"C\": 1}, \"44\": {\"C\": 1}, \"45\": {\"C\": 1}, \"46\": {\"C\": 1}, \"47\": {\"C\": 1}, \"48\": {\"C\": 1}, \"49\": {\"C\": 1}, \"50\": {\"C\": 1}, \"51\": {\"C\": 1}, \"52\": {\"C\": 1}, \"53\": {\"C\": 1}, \"54\": {\"C\": 1}, \"55\": {\"C\": 1}, \"56\": {\"C\": 1}, \"57\": {\"C\": 1}, \"58\": {\"C\": 1}, \"59\": {\"C\": 1}, \"60\": {\"C\": 1}, \"61\": {\"C\": 1}, \"62\": {\"C\": 1}, \"63\": {\"C\": 1}, \"64\": {\"C\": 1}, \"65\": {\"C\": 1}, \"66\": {\"C\": 1}, \"67\": {\"C\": 1}, \"68\": {\"C\": 1}, \"69\": {\"C\": 1}, \"70\": {\"C\": 1}, \"71\": {\"C\": 1}, \"72\": {\"N\": 1}, \"73\": {\"N\": 1}, \"74\": {\"N\": 1}, \"75\": {\"N\": 1}, \"76\": {\"N\": 1}, \"77\": {\"N\": 1}, \"78\": {\"O\": 1}, \"79\": {\"O\": 1}, \"80\": {\"O\": 1}, \"81\": {\"O\": 1}, \"82\": {\"O\": 1}, \"83\": {\"O\": 1}, \"84\": {\"O\": 1}, \"85\": {\"O\": 1}, \"86\": {\"O\": 1}, \"87\": {\"O\": 1}, \"88\": {\"O\": 1}, \"89\": {\"O\": 1}}" energy=-598.1704711914062 free_energy=-598.1704711914062 stress="-0.008596200495958328 0.00405691284686327 -0.011257996782660484 0.00405691284686327 0.0004693826485890895 -0.0010171200847253203 -0.011257996782660484 -0.0010171200847253203 -0.0018578569870442152" pbc="T T T"
Cu      -0.28541042       6.48185171       4.14468419        0      -0.43255907       0.68445981       0.11374080
Cu       6.59596416      -1.61165179       6.28565973        1       0.22900681      -0.90829420      -0.31936836
P       -0.83094081      -0.74132173       3.74686521        2       2.72804260      -2.44217849      -0.49127603
P        7.10405405       5.62982484       6.75535273        3      -2.11944437      -0.22585365      -0.75855958
P        3.62733874       4.44709925      10.14277295        4      -0.77484965       0.44299951       0.09153980
P        2.66789693       0.36804016       0.28788584        5      -0.71173012       2.29046869       2.17101455
H        0.64445051      -1.05295504       5.95525254        6       0.41001126       0.20015609       0.28249836
H        5.64056533       5.88336736       4.46992285        7       0.18756768      -0.12480821       0.04198535
H        1.86212299      -0.31057110       8.03681193        8       0.33649936      -0.12741187      -0.23294365
H        4.36836566       5.13224296       2.47450483        9       0.02367934       0.06600252      -0.11329032
H        3.68137585      -1.84159978       8.95406770       10      -0.22422823      -0.16537607      -0.86407769
H        2.58566816       6.67511341       1.53977039       11      -0.67571849      -0.53431213      -1.31415737
H        3.13242704       6.15326166       7.76009937       12       0.04118833      -0.14302377      -0.02805896
H        3.09430155      -1.26807646       2.63038124       13       0.40290055      -0.24814382       0.45804119
H        3.23284537       4.19589507       6.81805658       14       0.28506422       0.11801562       0.29781246
H        3.03597922       0.66139647       3.58362694       15       0.63359827       0.25891304       1.04181886
H        1.96391979       2.12328899       3.14276269       16      -0.31447759       0.88175189       0.60847527
H        4.31626905       2.71425072       7.28159919       17       0.25316954      -1.64899635      -1.12982750
H        0.40817265       2.23551294       1.58472476       18       0.11934675       0.12136470       0.11867991
H        5.87703093       2.61951246       8.82369668       19      -0.35049635       0.53467476       0.07889792
H        7.83462078       2.43819819       0.01357518       20       0.39752603       1.48842740       1.15686870
H       -1.63486834       2.37924615      10.36285044       21       0.44787952       0.95913655       1.14571095
H        6.55108687       4.59444288       0.16219453       22      -0.94488156       0.36434129      -0.41532698
H       -0.21317090       0.28335852      10.27991288       23      -0.79739547       0.13455640      -0.62916237
H        7.18126761       6.32487276       1.80890780       24      -0.34610051       1.07648838       0.34793881
H       -0.85927058      -1.52473110       8.60935859       25      -0.24734634       1.23421192       0.12845728
H        6.58519043      -1.08057840       2.59153550       26       0.24411623       0.36283493      -0.27007860
H       -0.29959156       5.92385681       7.87048651       27       0.36958957      -0.11101375       0.23748702
H        7.10810683       0.65648061       2.52850233       28       0.19083919      -1.09786391       0.21761972
H       -0.83492118       4.20976205       7.87889064       29       0.30638486       0.06562894       0.06655110
H        7.46141682       8.53891105       0.88359250       30       0.08225860       0.23629948      -0.02292065
H       -1.20962846      -3.70538819       9.53404620       31       0.28748158      -0.17090005       0.24245945
H        8.80514490       0.21645995       0.85845295       32      -0.24137527      -0.38000703      -0.01171275
H       -2.49217345       4.65339861       9.64313893       33       0.21192157       0.18887188      -0.12435900
H        0.98768397       0.26229676       2.70855554       34      -0.85013908      -0.17504178       0.72861981
H        5.26248193       4.61302818       7.75656726       35       0.70696604       0.19439985      -0.57870066
H        3.69171668       8.78683073       0.06590996       36       1.20475292      -0.38885313      -0.08569327
H        2.55173782      -3.94884736      10.33946740       37      -0.43060887       0.27260509       0.17217278
C        1.50431671      -1.60465085       6.36494381       38      -1.35072947       0.95790982      -0.25226372
C        4.85100730       6.48069963       4.03586163       39      -0.80240881       1.70570266       0.82822359
C        2.19709997      -1.20687148       7.49378370       40      -0.20025420       0.27602512       0.57325882
C        4.13721158       6.10703449       2.91325093       41       0.65365398      -1.17742324      -0.20368838
C        3.17436045      -2.07205521       7.98304589       42       0.02869105       1.72730327       1.95110250
C        3.16612666       6.91673556       2.37773221       43      -0.69160581       2.61088490       2.06684947
C        3.39886610      -3.25847251       7.35661340       44       1.64256346      -0.39824906       1.40076303
C        2.84489934       8.15199983       3.06562498       45       0.16187535      -2.24726152      -1.90142429
C        1.66315542       6.51700507       6.27429257       46      -0.82255733      -1.82847798      -2.81087232
C        4.59227292      -1.67160725       4.19783024       47      -1.50774276       3.03112483      -0.20108864
C        1.82759791       5.24855678       5.52740314       48       0.31807587      -0.99530935      -0.44286770
C        4.45540519      -0.37341189       4.91662130       49      -1.86631119       0.82666612      -1.91496110
C        2.69004918       4.17701718       5.89079301       50      -1.54729652      -0.35772520      -1.73533607
C        3.62602791       0.75389397       4.53945030       51       0.24335034      -1.94527602      -0.72566324
C        2.70356947       3.01422362       5.03234662       52       0.16158681       0.43459108       0.59815264
C        3.57326611       1.84174707       5.39995672       53      -0.72922635       0.48475334      -1.10548282
C        1.89252119       2.97689892       3.86182564       54       0.98858535      -0.38740101       0.82086700
C        4.36827969       1.81516525       6.54795660       55      -0.94310296       3.11034870       1.49379587
C        1.02796471       4.05024346       3.65297469       56      -0.19660449      -1.27428687      -2.43836999
C        5.23495958       0.80743372       6.79415742       57       0.88937420      -1.43674397       0.50647020
C        0.04600814       4.14160198       2.52743893       58       1.60419810      -0.72979563       1.31199491
C        6.23281132       0.73925721       7.89079658       59       0.19996805      -1.22715974      -0.74473006
C       -0.17837558       3.15297162       1.61455915       60      -1.37971580      -1.02115190      -1.52916360
C        6.49787589       1.74625714       8.84990071       61      -1.24700570      -0.61065984      -1.65236974
C        8.11920563       3.29145576       0.74425990       62       0.40434986      -0.91205031      -0.33298260
C       -1.89394318       1.60899867       9.70275220       63       1.34656060      -2.15078068      -0.40010515
C        7.35262240       4.45585849       0.84295468       64       1.28980136      -0.82951009       0.05103378
C       -1.09365863       0.43015734       9.59333787       65       1.11510980       1.68150091       2.19011211
C        7.76124278       5.44027895       1.76103103       66      -2.72403502      -0.82345045      -2.83847690
C       -1.38130573      -0.52644961       8.69281762       67      -0.75956976      -2.45101905      -1.38999414
C        7.48560365      -0.42961714       2.44725784       68      -2.40805149       1.45895100      -0.48977080
C       -1.15199446       5.25521924       8.04627183       69       0.47864643      -0.53065169      -0.38627607
C        7.00496124       9.53882385       1.02895856       70       1.06576800      -0.43052453      -0.10627965
C       -0.68389327      -4.68148387       9.45470960       71      -1.79334462       0.18777283      -0.48589584
N        1.72924230      -2.75337889       5.76109526       72       0.20962253      -0.67952019      -0.47795680
N        4.53161804       7.66967576       4.67225667       73       2.25596118      -3.31571555       0.12154365
N        1.05573859       5.11936615       4.38766986       74       0.86305630       1.71804714       2.84559536
N        5.21348688      -0.28776052       5.95397423       75       1.40600920       0.92512202       2.58812332
N       -0.67873897       5.24942828       2.53045558       76       1.60649133       1.21042311       2.40336061
N        6.98358221      -0.42806189       7.84400409       77       0.03412291       1.71085906       0.87655008
O       -1.28182665       7.86718218       3.34296003       78      -1.05420399       1.74109483       0.14683509
O        7.59854739      -3.05373567       7.12457144       79       0.23453900       0.31618464       0.20851350
O        0.37392892       0.28501066       3.59602159       80       0.45063937       0.03441875      -0.69057560
O        5.82851465       4.57876753       6.87729119       81       0.96227539       0.73698896       0.31563064
O        2.60635105       3.24106029      10.37824813       82      -0.86286652       0.61102098       0.16753447
O        3.68443023       1.58208588       0.07437386       83       0.16904941      -0.32584924      -0.09475720
O        4.32193479       4.20335205       8.81615774       84       0.11687678      -0.21181913      -0.01535329
O        1.92827379       0.66206901       1.66196952       85       0.75659108      -0.37796140      -1.43940377
O        3.96669132      -4.25661456      10.24606019       86       0.38568220      -0.62132132       0.03994265
O        2.31624889       9.13704442       0.17775333       87       0.52827048      -1.55629444      -0.08569391
O        8.08152101      -0.62665667       5.14150420       88      -0.25125518       0.40096158       0.52001470
O       -1.80302791       5.45464060       5.33551534       89      -0.07189831      -0.32979673       0.50666124
90
Lattice="9.42862866 0.0 0.0 -1.0091678043639387 10.090683653490272 0.0 -2.1320097477294917 -5.239895251523266 10.430569364486121" Properties=species:S:1:pos:R:3:spacegroup_kinds:I:1:forces:R:3 spacegroup="P 1" unit_cell=conventional occupancy="_JSON {\"0\": {\"Cu\": 1}, \"1\": {\"Cu\": 1}, \"2\": {\"P\": 1}, \"3\": {\"P\": 1}, \"4\": {\"P\": 1}, \"5\": {\"P\": 1}, \"6\": {\"H\": 1}, \"7\": {\"H\": 1}, \"8\": {\"H\": 1}, \"9\": {\"H\": 1}, \"10\": {\"H\": 1}, \"11\": {\"H\": 1}, \"12\": {\"H\": 1}, \"13\": {\"H\": 1}, \"14\": {\"H\": 1}, \"15\": {\"H\": 1}, \"16\": {\"H\": 1}, \"17\": {\"H\": 1}, \"18\": {\"H\": 1}, \"19\": {\"H\": 1}, \"20\": {\"H\": 1}, \"21\": {\"H\": 1}, \"22\": {\"H\": 1}, \"23\": {\"H\": 1}, \"24\": {\"H\": 1}, \"25\": {\"H\": 1}, \"26\": {\"H\": 1}, \"27\": {\"H\": 1}, \"28\": {\"H\": 1}, \"29\": {\"H\": 1}, \"30\": {\"H\": 1}, \"31\": {\"H\": 1}, \"32\": {\"H\": 1}, \"33\": {\"H\": 1}, \"34\": {\"H\": 1}, \"35\": {\"H\": 1}, \"36\": {\"H\": 1}, \"37\": {\"H\": 1}, \"38\": {\"C\": 1}, \"39\": {\"C\": 1}, \"40\": {\"C\": 1}, \"41\": {\"C\": 1}, \"42\": {\"C\": 1}, \"43\": {\"C\": 1}, \"44\": {\"C\": 1}, \"45\": {\"C\": 1}, \"46\": {\"C\": 1}, \"47\": {\"C\": 1}, \"48\": {\"C\": 1}, \"49\": {\"C\": 1}, \"50\": {\"C\": 1}, \"51\": {\"C\": 1}, \"52\": {\"C\": 1}, \"53\": {\"C\": 1}, \"54\": {\"C\": 1}, \"55\": {\"C\": 1}, \"56\": {\"C\": 1}, \"57\": {\"C\": 1}, \"58\": {\"C\": 1}, \"59\": {\"C\": 1}, \"60\": {\"C\": 1}, \"61\": {\"C\": 1}, \"62\": {\"C\": 1}, \"63\": {\"C\": 1}, \"64\": {\"C\": 1}, \"65\": {\"C\": 1}, \"66\": {\"C\": 1}, \"67\": {\"C\": 1}, \"68\": {\"C\": 1}, \"69\": {\"C\": 1}, \"70\": {\"C\": 1}, \"71\": {\"C\": 1}, \"72\": {\"N\": 1}, \"73\": {\"N\": 1}, \"74\": {\"N\": 1}, \"75\": {\"N\": 1}, \"76\": {\"N\": 1}, \"77\": {\"N\": 1}, \"78\": {\"O\": 1}, \"79\": {\"O\": 1}, \"80\": {\"O\": 1}, \"81\": {\"O\": 1}, \"82\": {\"O\": 1}, \"83\": {\"O\": 1}, \"84\": {\"O\": 1}, \"85\": {\"O\": 1}, \"86\": {\"O\": 1}, \"87\": {\"O\": 1}, \"88\": {\"O\": 1}, \"89\": {\"O\": 1}}" energy=-597.0892333984375 free_energy=-597.0892333984375 stress="-0.005404546391218901 0.005031272303313017 -0.008752591907978058 0.005031272303313017 -0.0034426250495016575 -0.003677118569612503 -0.008752591907978058 -0.003677118569612503 0.0006049684598110616" pbc="T T T"
Cu      -0.29751386       6.46109834       4.14036035        0      -0.46238405       1.02207136       0.25851482
Cu       6.62531848      -1.58722658       6.29735046        1       0.19207138      -1.23635650      -0.59338796
P       -0.82309754      -0.72505572       3.73526559        2       1.59951067      -2.96990728       1.37318933
P        7.13327336       5.62517319       6.73567171        3      -3.05405807      -0.09009328       0.21973401
P        3.62448744       4.44660335      10.13158991        4      -0.53498113       0.80382991       0.66948873
P        2.64205178       0.37075173       0.29106687        5       0.47012731       1.46403456       1.95381498
H        0.65228929      -1.03199996       5.96067803        6       0.70453405      -0.22403464       0.39512441
H        5.61736063       5.90928756       4.48892983        7       1.29834723      -0.91554809       0.63606364
H        1.84359494      -0.31878533       8.04348338        8       0.26299813       0.00407735      -0.22033110
H        4.35526920       5.10562079       2.45150121        9      -0.03653491       0.47957626       0.09719881
H        3.66106485      -1.86497592       8.93510770       10       0.69084573       0.26939738       0.79874074
H        2.60435006       6.67899412       1.52385093       11      -0.97003770      -0.42772931      -1.61371577
H        3.11354140       6.17988056       7.78568723       12       0.02790108      -0.30934405      -0.27915806
H        3.11755414      -1.24151715       2.62154871       13       0.55632818      -0.35498974       0.62494791
H        3.22343237       4.19634625       6.84740074       14       0.41063929       0.04223661       0.37534550
H        3.04692908       0.68457280       3.57638365       15       0.65115589       0.09401332       1.43421638
H        1.97596912       2.14417397       3.13809366       16      -0.33405760       0.22611272       0.09955330
H        4.28837290       2.73790949       7.26631103       17       0.60158801      -1.64157963      -0.96560359
H        0.41031429       2.25829190       1.58109471       18       0.58162338      -0.41856387       0.06952700
H        5.85868014       2.60587343       8.81745055       19      -0.65839589       1.05050540       0.04848187
H        7.82839839       2.44105710       0.01780076       20       0.40817088       1.33161199       1.27681863
H       -1.61665400       2.37434723      10.38752506       21      -0.00762982      -0.06665660       0.14385535