94
Lattice="8.55705542 0.0 0.0 -8.432690105823306e-06 9.182013549996128 0.0 4.20063482345831e-06 -1.3007841482050204 11.537062419117953" Properties=species:S:1:pos:R:3:spacegroup_kinds:I:1:forces:R:3 spacegroup="P 1" unit_cell=conventional occupancy="_JSON {\"0\": {\"Zn\": 1}, \"1\": {\"Zn\": 1}, \"2\": {\"P\": 1}, \"3\": {\"P\": 1}, \"4\": {\"P\": 1}, \"5\": {\"P\": 1}, \"6\": {\"P\": 1}, \"7\": {\"P\": 1}, \"8\": {\"P\": 1}, \"9\": {\"P\": 1}, \"10\": {\"H\": 1}, \"11\": {\"H\": 1}, \"12\": {\"H\": 1}, \"13\": {\"H\": 1}, \"14\": {\"H\": 1}, \"15\": {\"H\": 1}, \"16\": {\"H\": 1}, \"17\": {\"H\": 1}, \"18\": {\"H\": 1}, \"19\": {\"H\": 1}, \"20\": {\"H\": 1}, \"21\": {\"H\": 1}, \"22\": {\"H\": 1}, \"23\": {\"H\": 1}, \"24\": {\"H\": 1}, \"25\": {\"H\": 1}, \"26\": {\"H\": 1}, \"27\": {\"H\": 1}, \"28\": {\"H\": 1}, \"29\": {\"H\": 1}, \"30\": {\"H\": 1}, \"31\": {\"H\": 1}, \"32\": {\"H\": 1}, \"33\": {\"H\": 1}, \"34\": {\"H\": 1}, \"35\": {\"H\": 1}, \"36\": {\"H\": 1}, \"37\": {\"H\": 1}, \"38\": {\"H\": 1}, \"39\": {\"H\": 1}, \"40\": {\"H\": 1}, \"41\": {\"H\": 1}, \"42\": {\"C\": 1}, \"43\": {\"C\": 1}, \"44\": {\"C\": 1}, \"45\": {\"C\": 1}, \"46\": {\"C\": 1}, \"47\": {\"C\": 1}, \"48\": {\"C\": 1}, \"49\": {\"C\": 1}, \"50\": {\"C\": 1}, \"51\": {\"C\": 1}, \"52\": {\"C\": 1}, \"53\": {\"C\": 1}, \"54\": {\"C\": 1}, \"55\": {\"C\": 1}, \"56\": {\"C\": 1}, \"57\": {\"C\": 1}, \"58\": {\"C\": 1}, \"59\": {\"C\": 1}, \"60\": {\"C\": 1}, \"61\": {\"C\": 1}, \"62\": {\"N\": 1}, \"63\": {\"N\": 1}, \"64\": {\"N\": 1}, \"65\": {\"N\": 1}, \"66\": {\"O\": 1}, \"67\": {\"O\": 1}, \"68\": {\"O\": 1}, \"69\": {\"O\": 1}, \"70\": {\"O\": 1}, \"71\": {\"O\": 1}, \"72\": {\"O\": 1}, \"73\": {\"O\": 1}, \"74\": {\"O\": 1}, \"75\": {\"O\": 1}, \"76\": {\"O\": 1}, \"77\": {\"O\": 1}, \"78\": {\"O\": 1}, \"79\": {\"O\": 1}, \"80\": {\"O\": 1}, \"81\": {\"O\": 1}, \"82\": {\"O\": 1}, \"83\": {\"O\": 1}, \"84\": {\"O\": 1}, \"85\": {\"O\": 1}, \"86\": {\"O\": 1}, \"87\": {\"O\": 1}, \"88\": {\"O\": 1}, \"89\": {\"O\": 1}, \"90\": {\"O\": 1}, \"91\": {\"O\": 1}, \"92\": {\"O\": 1}, \"93\": {\"O\": 1}}" energy=-596.1702270507812 free_energy=-596.1702270507812 stress="-0.008792133070528507 -0.0003891481610480696 0.0003119804023299366 -0.0003891481610480696 0.0028058530297130346 0.0013554340694099665 0.0003119804023299366 0.0013554340694099665 -0.006035142578184605" pbc="T T T"
Zn       0.00004356       0.00004370       0.00004332        0       0.19342057       0.20637110       0.26950157
Zn       4.27856534       3.94065015       5.76857255        1       0.17612141       0.20124374       0.24673298
P        0.82480916       6.77517783       2.16557981        2       0.90599710      -0.43790394       0.01251827
P        5.10284019       6.39752017       3.65971163        3       0.80826128       0.69219643       0.05741648
P        7.78504255       1.16502132       9.42904843        4      -0.52254885       0.36023343       0.10256536
P        3.51327755       1.53381297       7.93444233        5      -0.88946539      -0.42787933       0.03343850
P        4.25775998       2.32858632       2.67227311        6      -0.49825829       0.99701816      -0.69302899
P        8.54272001       1.65612871       3.15470533        7      -0.78671610      -0.43541521       0.66392380
P        4.35260142       5.59580514       8.92316741        8       0.75693810      -0.45191216       0.64616406
P        0.07292309       6.28441713       8.44162379        9       0.85336471       0.38868731      -0.84505671
H        2.37120937       2.65818560      10.04967815       10      -0.00536470      -0.06079300       0.73375630
H        6.64979251       0.04142730       7.31538425       11      -0.00122374       0.05751611      -0.74893934
H        6.24526516       5.28291574       1.54694238       12       0.00377706       0.05338654      -0.73945671
H        1.96671633       7.89945591       4.28084597       13       0.00345125      -0.05971946       0.73817390
H        1.08012721       4.43147566      10.94310821       14      -0.09379626      -0.17617178       0.19249061
H        5.35834697       7.44819645       6.42004014       15      -0.09614703       0.17433268      -0.16662684
H        7.53680545       3.50925657       0.65385343       16       0.09879819       0.17215684      -0.16245286
H        3.25828968       0.49090530       5.17451692       17       0.08190746      -0.19606718       0.19441339
H        2.50285665       4.66297600       3.34904329       18      -0.06396704       0.13315788      -0.41759229
H        6.78170846       8.51932302       2.47820832       19      -0.05450951      -0.13263974       0.41849267
H        6.11377593       3.27807716       8.24785369       20       0.04931890      -0.12893498       0.39898157
H        1.83522402      -0.57844389       9.11750090       21       0.05194113       0.13176811      -0.40661305
H        3.66706112       1.21859691      11.30712160       22      -0.02979570       0.20531961       0.27106035
H        7.94560333       1.48114636       6.05831464       23      -0.04546848      -0.24315859      -0.29433042
H        4.94980027       6.72253850       0.28980851       24       0.02871525      -0.20597559      -0.27018416
H        0.67135652       6.45987446       5.53715682       25       0.00489230       0.18099067       0.25037265
H        7.64864306       5.88553270       3.27802189       26       0.40243754       0.32439345       0.01972639
H        3.36943441       7.29657863       2.54863584       27       0.41378370      -0.34522927      -0.00622652
H        0.96775763       2.05487567       8.31780387       28      -0.40862909      -0.34662127       0.00238718
H        5.24576544       0.64359514       9.04666869       29      -0.38866803       0.32617322       0.01129434
H        2.50779881       1.22526427       3.15722012       30       0.39373890      -0.05434554      -0.08252922
H        6.78632242       2.77479282       2.67106137       31       0.46549571       0.04982278       0.11311816
H        6.10670587       6.71485561       8.43974974       32      -0.39499041       0.02632973       0.06511753
H        1.82924758       5.16577299       8.92519802       33      -0.42692110      -0.04811474      -0.09894247
H        2.58090312       7.07724155      10.92928155       34       0.00684096      -0.18483478      -0.17455783
H        6.85935671       4.80457579       6.43624381       35      -0.05216329       0.16722211       0.16609831
H        6.03609908       0.86386824       0.66774061       36       0.05165531       0.19883376       0.20631841
H        1.75749794       3.13648351       5.16074142       37      -0.01785053      -0.21190429      -0.21404022
H        2.56861129       9.08380410       0.83685666       38       0.04113047       0.15923986       0.08812530
H        6.84712052       4.09877156       4.99159336       39       0.09030301      -0.16004552      -0.10722657
H        6.04835596      -1.14265290      10.76017978       40      -0.11763781      -0.16466731      -0.12568375
H        1.76984072       3.84237594       6.60534444       41      -0.07194830       0.17486031       0.11948076
C        1.65371128       5.11654978       0.09586596       42       0.04253162      -0.11034931      -0.15295580
C        5.93255904       8.06512320       5.73230613       43       0.03863966       0.07064018       0.03796940
C        6.96239786       2.82248966      11.50073543       44      -0.06616957       0.06081537       0.08268996
C        2.68362162      -0.12470169       5.86433846       45      -0.05277406      -0.07918399      -0.10206900
C        1.67737603       5.33310203       1.46294149       46      -0.07172694       0.21292174       0.45105743
C        5.95640338       7.84350827       4.36393602       47      -0.02045531      -0.09087914      -0.41145360
C        6.93857496       2.59283309      10.13328913       48      -0.20323920       0.29653573      -0.40383285
C        2.65980931       0.09650136       7.23212764       49       0.00703079       0.05070177       0.38815987
C        2.45803709       4.49666270       2.27208067       50      -0.11768799      -0.19497508       0.29566675
C        6.73691012       8.68527301       3.55542256       51      -0.19048801       0.07673869      -0.26658416
C        6.15753873       3.44405477       9.32483512       52       0.24890316      -0.03039118      -0.18232673
C        1.87903933      -0.74513025       8.04059675       53       0.16916721      -0.12017737       0.25046250
C        3.21059143       3.46780756       1.69726501       54       0.03671074      -0.22356682       0.63276595
C        7.48924706       0.53128826       4.13056012       55       0.03259918       0.16723002      -0.57800305
C        5.40555098       4.47300821       9.89932047       56       0.02515918       0.11260709      -0.58367437
C        1.12755041       7.40819339       7.46497932       57      -0.04226351      -0.15954295       0.57488763
C        3.13349841       3.29203189       0.31823959       58      -0.27143696      -0.10668927       0.18702847
C        7.41194082       0.70657513       5.50969645       59      -0.19685844       0.20258723      -0.20637950
C        5.48329191       4.64892635      11.27842530       60       0.23613891       0.11952835      -0.20088452
C        1.20425011       7.23250855       6.08363513       61       0.23289740      -0.13017178       0.36300820
N        2.37173483       2.80716056      11.10712047       62      -0.01551130      -0.10076549      -0.45571977
N        6.65133130      -0.10771325       6.25746700       63      -0.08188249       0.02570254       0.49613088
N        6.24280044       5.13323990       0.48922186       64       0.10323605       0.02293683       0.42238873
N        1.96397794       8.04840537       5.33863852       65       0.12024833      -0.01912285      -0.52017212
O        8.46667529       7.35895253       1.12270241       66      -0.21797638       0.28963548      -0.16783127
O        4.18819656       5.82130970       4.70554241       67      -0.23620880      -0.36770803       0.17321010
O        0.15016632       0.58204146      10.47402951       68       0.07596350      -0.28579974       0.04388201
O        4.42872733       2.11765437       6.89137150       69       0.20001346       0.29303145      -0.15643339
O        1.93883490       7.67120516       2.72084637       70      -0.36382997       0.05111715      -0.26636752
O        6.21694855       5.51047516       3.10595986       71      -0.25476938      -0.17708696       0.19393550
O        6.67657656       0.26898788       8.87486224       72       0.27190831      -0.14906025       0.21030053
O        2.39890512       2.43004071       8.48927493       73       0.37197408       0.05965883      -0.27191180
O        0.06388665       6.20900604       3.42976207       74      -0.44971102       0.05386396       0.13652423
O        4.34232061       6.97291826       2.39776757       75      -0.43071622      -0.07271127      -0.14419284
O        8.55252257       1.73171565       8.16670198       76       0.37831134      -0.05561352      -0.13920489
O        4.27451916       0.96726635       9.19852699       77       0.40930974       0.06687355       0.13764808
O        4.45274789       2.90235105       4.05353691       78       0.09357603      -0.17972782       0.54453719
O        0.17441131       1.09739124       1.77467839       79       0.10160001      -0.08630044      -0.90826368
O        4.16398821       5.03791604       7.54328117       80      -0.10040255      -0.09306510      -0.93194473
O        8.44251578       6.84312011       9.82218000       81      -0.14331701      -0.05812068       0.74590051
O        5.52656526       2.08102029       1.86636133       82       0.28927988      -0.30692178       0.18607983
O        1.24831912       1.91886189       3.96140224       83       0.42851815       0.26238731      -0.11122537
O        3.08930368       5.85757684       9.72798334       84      -0.41586581       0.27744988      -0.07745793
O        7.36821671       6.02202128       7.63494907       85      -0.37764773      -0.24849215       0.14418969
O        3.39290822       1.00345795       2.70083107       86      -0.31630635      -0.35781503       0.21304464
O        7.67139626       2.99696922       3.12706502       87      -0.17385337       0.05955094      -0.17340887
O        5.22391255       6.93651211       8.89286728       88       0.09510762       0.09144038      -0.11626756
O        0.94540031       4.94225493       8.46839002       89       0.11114745       0.01084054       0.20244278
O        2.19233152       7.81685762      11.47051038       90      -0.33242509       0.03182670       0.03850543
O        6.47076508       4.06447927       5.89461493       91      -0.32417351      -0.04963731      -0.06330547
O        6.42435763       0.12388147       0.12598699       92       0.21109596      -0.05699824      -0.07707708
O        2.14540226       3.87611612       5.70187321       93       0.22040880       0.03532949       0.04835309
94
Lattice="8.55705542 0.0 0.0 -8.432690105823306e-06 9.182013549996128 0.0 4.20063482345831e-06 -1.3007841482050204 11.537062419117953" Properties=species:S:1:pos:R:3:spacegroup_kinds:I:1:forces:R:3 spacegroup="P 1" unit_cell=conventional occupancy="_JSON {\"0\": {\"Zn\": 1}, \"1\": {\"Zn\": 1}, \"2\": {\"P\": 1}, \"3\": {\"P\": 1}, \"4\": {\"P\": 1}, \"5\": {\"P\": 1}, \"6\": {\"P\": 1}, \"7\": {\"P\": 1}, \"8\": {\"P\": 1}, \"9\": {\"P\": 1}, \"10\": {\"H\": 1}, \"11\": {\"H\": 1}, \"12\": {\"H\": 1}, \"13\": {\"H\": 1}, \"14\": {\"H\": 1}, \"15\": {\"H\": 1}, \"16\": {\"H\": 1}, \"17\": {\"H\": 1}, \"18\": {\"H\": 1}, \"19\": {\"H\": 1}, \"20\": {\"H\": 1}, \"21\": {\"H\": 1}, \"22\": {\"H\": 1}, \"23\": {\"H\": 1}, \"24\": {\"H\": 1}, \"25\": {\"H\": 1}, \"26\": {\"H\": 1}, \"27\": {\"H\": 1}, \"28\": {\"H\": 1}, \"29\": {\"H\": 1}, \"30\": {\"H\": 1}, \"31\": {\"H\": 1}, \"32\": {\"H\": 1}, \"33\": {\"H\": 1}, \"34\": {\"H\": 1}, \"35\": {\"H\": 1}, \"36\": {\"H\": 1}, \"37\": {\"H\": 1}, \"38\": {\"H\": 1}, \"39\": {\"H\": 1}, \"40\": {\"H\": 1}, \"41\": {\"H\": 1}, \"42\": {\"C\": 1}, \"43\": {\"C\": 1}, \"44\": {\"C\": 1}, \"45\": {\"C\": 1}, \"46\": {\"C\": 1}, \"47\": {\"C\": 1}, \"48\": {\"C\": 1}, \"49\": {\"C\": 1}, \"50\": {\"C\": 1}, \"51\": {\"C\": 1}, \"52\": {\"C\": 1}, \"53\": {\"C\": 1}, \"54\": {\"C\": 1}, \"55\": {\"C\": 1}, \"56\": {\"C\": 1}, \"57\": {\"C\": 1}, \"58\": {\"C\": 1}, \"59\": {\"C\": 1}, \"60\": {\"C\": 1}, \"61\": {\"C\": 1}, \"62\": {\"N\": 1}, \"63\": {\"N\": 1}, \"64\": {\"N\": 1}, \"65\": {\"N\": 1}, \"66\": {\"O\": 1}, \"67\": {\"O\": 1}, \"68\": {\"O\": 1}, \"69\": {\"O\": 1}, \"70\": {\"O\": 1}, \"71\": {\"O\": 1}, \"72\": {\"O\": 1}, \"73\": {\"O\": 1}, \"74\": {\"O\": 1}, \"75\": {\"O\": 1}, \"76\": {\"O\": 1}, \"77\": {\"O\": 1}, \"78\": {\"O\": 1}, \"79\": {\"O\": 1}, \"80\": {\"O\": 1}, \"81\": {\"O\": 1}, \"82\": {\"O\": 1}, \"83\": {\"O\": 1}, \"84\": {\"O\": 1}, \"85\": {\"O\": 1}, \"86\": {\"O\": 1}, \"87\": {\"O\": 1}, \"88\": {\"O\": 1}, \"89\": {\"O\": 1}, \"90\": {\"O\": 1}, \"91\": {\"O\": 1}, \"92\": {\"O\": 1}, \"93\": {\"O\": 1}}" energy=-596.16455078125 free_energy=-596.16455078125 stress="-0.008897379040718079 -0.00037501120823435485 0.000325055792927742 -0.00037501120823435485 0.0025464175269007683 0.0012976167490705848 0.000325055792927742 0.0012976167490705848 -0.005910009611397982" pbc="T T T"
Zn       0.02996495       0.02979762       0.02968835        0       0.19480383       0.20495644       0.27299112
Zn       4.30821524       3.97056081       5.79852876        1       0.17716137       0.20740055       0.24799180
P        0.85478306       6.80431260       2.19541977        2       0.91004205      -0.41173583       0.01000893
P        5.13262676       6.42679474       3.68679529        3       0.74418604       0.70412660       0.15858525
P        7.81478919       1.19400272       9.45885968        4      -0.51277053       0.37274534       0.08371317
P        3.54324086       1.56379302       7.96426934        5      -0.88600683      -0.44323015       0.02558056
P        4.28689609       2.35808734       2.70158290        6      -0.46845686       1.02414417      -0.66344851
P        8.57259229       1.68594835       3.18446019        7      -0.79375905      -0.44148290       0.67010701
P        4.38245733       5.62553392       8.95301339        8       0.67814106      -0.63219720       0.62333769
P        0.10276073       6.31315912       8.47103663        9       0.83399725       0.42445967      -0.82036501
H        2.40109968       2.68804952      10.07773460       10      -0.01167730      -0.05517789       0.76091295
H        6.67960209       0.07138083       7.34525811       11      -0.00235793       0.05148478      -0.75385946
H        6.27512336       5.31244225       1.57660413       12       0.00654649       0.05328543      -0.74777871
H        1.99659577       7.92934777       4.31080939       13       0.00369975      -0.06506881       0.70577651
H        1.11009065       4.46144659      10.97303659       14      -0.10231455      -0.17272040       0.18851107
H        5.38812533       7.47753042       6.44994677       15      -0.09438601       0.17799187      -0.17691953
H        7.56670887       3.53893137       0.68328461       16       0.09864586       0.17367998      -0.15894829
H        3.28827483       0.52084240       5.20446375       17       0.08159276      -0.19863282       0.19510436
H        2.53279521       4.69269330       3.37885178       18      -0.06552719       0.13270020      -0.42557746
H        6.81146177       8.54875335       2.50800076       19      -0.05295090      -0.13809110       0.40775061
H        6.14373218       3.30802722       8.27765711       20       0.04837264      -0.12969412       0.39377570
H        1.86520507      -0.54858129       9.14731503       21       0.05477224       0.13181731      -0.41038147
H        3.69702697       1.24825938      11.33691284       22      -0.01941473       0.19025783       0.25434357
H        7.97554380       1.51036661       6.08824773       23      -0.04238836      -0.23656321      -0.28923833
H        4.97977050       6.75249272       0.31935889       24       0.02698863      -0.20595406      -0.26508400
H        0.70126156       6.48947479       5.56687629       25      -0.02555171       0.15660629       0.23365670
H        7.67737287       5.91547430       3.30788418       26       0.42789048       0.33203888       0.02153020
H        3.39930769       7.32649694       2.57825676       27       0.37934744      -0.33626831      -0.00075338
H        0.99769183       2.08482071       8.34768201       28      -0.42969766      -0.35659862      -0.00314519
H        5.27465088       0.67055629       9.07660271       29      -0.39085129       0.33947688       0.00957569
H        2.53756150       1.25495499       3.18670335       30       0.39139494      -0.05487561      -0.08015274
H        6.81618869       2.80475778       2.70081605       31       0.46552598       0.04880060       0.11424918
H        6.13666727       6.74485093       8.46947539       32      -0.31916541      -0.02677372       0.01382130
H        1.85841695       5.19545078       8.95410247       33      -0.40724033      -0.04614112      -0.09027006
H        2.61087497       7.10723918      10.95926594       34       0.00567461      -0.18631244      -0.17510565
H        6.88925796       4.83454472       6.46622175       35      -0.05399182       0.16592394       0.16525224
H        6.06607911       0.89383284       0.69768669       36       0.05045842       0.20125280       0.20705616
H        1.78737998       3.16644370       5.19072781       37      -0.01733086      -0.21132489      -0.21364003
H        2.59855634       9.11379935       0.86684346       38       0.03975435       0.15857810       0.08713666
H        6.87710260       4.12875919       5.02133422       39       0.08582994      -0.16160646      -0.09665498
H        6.07834065      -1.11266213      10.79003960       40      -0.11542481      -0.16146867      -0.11903141
H        1.79983672       3.87236545       6.63532605       41      -0.07000084       0.17549279       0.11508743
C        1.68250864       5.14575929       0.12564196       42       0.05856106      -0.11092508      -0.14497221
C        5.96228883       8.09452516       5.76178567       43       0.03553873       0.06621819       0.06201468
C        6.99237959       2.85221705      11.53015229       44      -0.07022654       0.05434132       0.08521165
C        2.71335864      -0.09486270       5.89413282       45      -0.06297635      -0.10315993      -0.15652683
C        1.70734282       5.36269741       1.49287666       46      -0.09051493       0.21824051       0.43077284
C        5.98635961       7.87308994       4.39359370       47      -0.03882432      -0.12195960      -0.43085769
C        6.96837053       2.62075125      10.16300898       48      -0.23120967       0.35559666      -0.41349176
C        2.68962865       0.12628547       7.26097428       49      -0.00076133       0.05224359       0.44445619
C        2.48737639       4.52643043       2.30164198       50      -0.09541965      -0.21422154       0.31559426
C        6.76678579       8.71347890       3.58502770       51      -0.15758003       0.14111714      -0.24444352
C        6.18737549       3.47378119       9.35450667       52       0.24073221      -0.03514928      -0.15270057
C        1.90898653      -0.71522804       8.07031524       53       0.17378043      -0.12010826       0.23692161
C        3.24032134       3.49738037       1.72717978       54       0.02694160      -0.22455254       0.58679068
C        7.51915777       0.56095932       4.16052460       55       0.01673329       0.13913707      -0.59289753
C        5.43402820       4.50286565       9.92910964       56       0.06093511       0.05922162      -0.57832980
C        1.15726522       7.43799979       7.49494734       57      -0.05950497      -0.16277847       0.56347191
C        3.16339061       3.32115649       0.34709264       58      -0.30465546      -0.05715076       0.23942505
C        7.44193203       0.73615495       5.53966923       59      -0.20869400       0.18357067      -0.21845372
C        5.51310987       4.67867307      11.30829944       60       0.22361654       0.12471774      -0.21808514
C        1.23105293       7.26247990       6.11333218       61       0.34601757      -0.04814308       0.33596274
N        2.40062606       2.83684291      11.13638747       62       0.01081240      -0.13066627      -0.46880364
N        6.68122839      -0.07874294       6.28732039       63      -0.07434431       0.04278882       0.49248275
N        6.27268155       5.16318228       0.51862610       64       0.11793216       0.00871091       0.43127829
N        1.99387003       8.07806814       5.36725591       65       0.06892212      -0.04466361      -0.40971500
O        8.49660652       7.38877494       1.15262302       66      -0.21366987       0.28381890      -0.16423962
O        4.21817253       5.85125789       4.73550275       67      -0.20499846      -0.34735572       0.12722379
O        0.18008835       0.61197936      10.50378126       68       0.08145395      -0.29433703       0.05004407
O        4.45861651       2.14751544       6.92132426       69       0.20285396       0.29373437      -0.15731151
O        1.96868537       7.70108001       2.75077615       70      -0.37682050       0.04281704      -0.27618027
O        6.24583721       5.54017515       3.13511299       71      -0.21661413      -0.20215157       0.16883487
O        6.70632195       0.29874666       8.90449395       72       0.25987953      -0.16990989       0.20705782
O        2.42880539       2.45956702       8.51909574       73       0.36450309       0.06483503      -0.26682767
O        0.09374596       6.23891826       3.45954775       74      -0.48117173       0.03980621       0.13791838
O        4.37032298       7.00221037       2.42661990       75      -0.38851714      -0.08323777      -0.15835464
O        8.58196071       1.76051092       8.19566241       76       0.39817429      -0.04958912      -0.12199140
O        4.30430564       0.99716145       9.22845779       77       0.40993470       0.05794003       0.13749194
O        4.48269524       2.93232863       4.08343954       78       0.08720861      -0.19144309       0.51795745
O        0.20437093       1.12711666       1.80466267       79       0.10183461      -0.08862659      -0.91717577
O        4.19394808       5.06784292       7.57304530       80      -0.11738947      -0.11964428      -0.95264637
O        8.47237624       6.87303765       9.85209093       81      -0.14232263      -0.07448131       0.71602619
O        5.55645547       2.11090805       1.89623414       82       0.28141192      -0.30751601       0.18610007
O        1.27792842       1.94824069       3.99136947       83       0.43650192       0.26618680      -0.10903034
O        3.11910678       5.88734629       9.75697188       84      -0.42275071       0.28858224      -0.07115272
O        7.39750783       6.05146425       7.66450508       85      -0.35438135      -0.24944234       0.14757854
O        3.42288322       1.03341493       2.73064465       86      -0.32704318      -0.37519580       0.21145871
O        7.70134244       3.02663080       3.15690381       87      -0.17627078       0.06434101      -0.17472550
O        5.25317698       6.95560423       8.91883540       88       0.11045072       0.37162256      -0.04039675
O        0.97495129       4.97180884       8.49792955       89       0.10256919      -0.00798255       0.19557688
O        2.22230861       7.84682905      11.50044928       90      -0.33095825       0.03324796       0.03913702
O        6.50065274       4.09440057       5.92454540       91      -0.31833842      -0.04825012      -0.07272485
O        6.45425029       0.15383562       0.15588083       92       0.21039549      -0.05957000      -0.08172404
O        2.17536245       3.90610533       5.73175062       93       0.21470129       0.03407465       0.05146919
94
Lattice="8.55705542 0.0 0.0 -8.432690105823306e-06 9.182013549996128 0.0 4.20063482345831e-06 -1.3007841482050204 11.537062419117953" Properties=species:S:1:pos:R:3:spacegroup_kinds:I:1:forces:R:3 spacegroup="P 1" unit_cell=conventional occupancy="_JSON {\"0\": {\"Zn\": 1}, \"1\": {\"Zn\": 1}, \"2\": {\"P\": 1}, \"3\": {\"P\": 1}, \"4\": {\"P\": 1}, \"5\": {\"P\": 1}, \"6\": {\"P\": 1}, \"7\": {\"P\": 1}, \"8\": {\"P\": 1}, \"9\": {\"P\": 1}, \"10\": {\"H\": 1}, \"11\": {\"H\": 1}, \"12\": {\"H\": 1}, \"13\": {\"H\": 1}, \"14\": {\"H\": 1}, \"15\": {\"H\": 1}, \"16\": {\"H\": 1}, \"17\": {\"H\": 1}, \"18\": {\"H\": 1}, \"19\": {\"H\": 1}, \"20\": {\"H\": 1}, \"21\": {\"H\": 1}, \"22\": {\"H\": 1}, \"23\": {\"H\": 1}, \"24\": {\"H\": 1}, \"25\": {\"H\": 1}, \"26\": {\"H\": 1}, \"27\": {\"H\": 1}, \"28\": {\"H\": 1}, \"29\": {\"H\": 1}, \"30\": {\"H\": 1}, \"31\": {\"H\": 1}, \"32\": {\"H\": 1}, \"33\": {\"H\": 1}, \"34\": {\"H\": 1}, \"35\": {\"H\": 1}, \"36\": {\"H\": 1}, \"37\": {\"H\": 1}, \"38\": {\"H\": 1}, \"39\": {\"H\": 1}, \"40\": {\"H\": 1}, \"41\": {\"H\": 1}, \"42\": {\"C\": 1}, \"43\": {\"C\": 1}, \"44\": {\"C\": 1}, \"45\": {\"C\": 1}, \"46\": {\"C\": 1}, \"47\": {\"C\": 1}, \"48\": {\"C\": 1}, \"49\": {\"C\": 1}, \"50\": {\"C\": 1}, \"51\": {\"C\": 1}, \"52\": {\"C\": 1}, \"53\": {\"C\": 1}, \"54\": {\"C\": 1}, \"55\": {\"C\": 1}, \"56\": {\"C\": 1}, \"57\": {\"C\": 1}, \"58\": {\"C\": 1}, \"59\": {\"C\": 1}, \"60\": {\"C\": 1}, \"61\": {\"C\": 1}, \"62\": {\"N\": 1}, \"63\": {\"N\": 1}, \"64\": {\"N\": 1}, \"65\": {\"N\": 1}, \"66\": {\"O\": 1}, \"67\": {\"O\": 1}, \"68\": {\"O\": 1}, \"69\": {\"O\": 1}, \"70\": {\"O\": 1}, \"71\": {\"O\": 1}, \"72\": {\"O\": 1}, \"73\": {\"O\": 1}, \"74\": {\"O\": 1}, \"75\": {\"O\": 1}, \"76\": {\"O\": 1}, \"77\": {\"O\": 1}, \"78\": {\"O\": 1}, \"79\": {\"O\": 1}, \"80\": {\"O\": 1}, \"81\": {\"O\": 1}, \"82\": {\"O\": 1}, \"83\": {\"O\": 1}, \"84\": {\"O\": 1}, \"85\": {\"O\": 1}, \"86\": {\"O\": 1}, \"87\": {\"O\": 1}, \"88\": {\"O\": 1}, \"89\": {\"O\": 1}, \"90\": {\"O\": 1}, \"91\": {\"O\": 1}, \"92\": {\"O\": 1}, \"93\": {\"O\": 1}}" energy=-596.1505126953125 free_energy=-596.1505126953125 stress="-0.009017187170684338 -0.000787448778282851 0.00017215729167219251 -0.000787448778282851 0.002627079840749502 0.0013295348035171628 0.00017215729167219251 0.0013295348035171628 -0.005847736727446318" pbc="T T T"
Zn       0.05983333       0.05972613       0.05957442        0       0.19267333       0.20976499       0.27736047
Zn       4.33809293       4.00033061       5.82843660        1       0.17415279       0.20554169       0.25181562
P        0.88475348       6.83378526       2.22528156        2       0.89039207      -0.40889364       0.00630940
P        5.16143877       6.45580015       3.71584966        3       0.76159394       0.72759712       0.14421377
P        7.84431882       1.22368596       9.48721491        4      -0.48291320       0.32956576       0.14261919
P        3.57317583       1.59362459       7.99414084        5      -0.87717819      -0.45869595       0.01585270
P        4.31405521       2.38593184       2.73131665        6      -0.32449979       1.07476580      -0.66536140
P        8.60239905       1.71575304       3.21440794        7      -0.79111403      -0.44102773       0.66827333
P        4.41223533       5.65525649       8.98286669        8       0.66807294      -0.69730431       0.60782897
P        0.12343215       6.34313206       8.50063116        9       1.25561953       0.36245611      -0.73523152
H        2.43071998       2.71797009      10.10743374       10      -0.00764966      -0.05798369       0.76500762