72
Lattice="5.87130282 0.0 0.0 2.6304804408279967 8.132354174633951 0.0 0.12793099696461338 1.2323007323960995 15.494161025536787" Properties=species:S:1:pos:R:3:spacegroup_kinds:I:1:forces:R:3 spacegroup="P 1" unit_cell=conventional occupancy="_JSON {\"0\": {\"Cd\": 1}, \"1\": {\"Cd\": 1}, \"2\": {\"H\": 1}, \"3\": {\"H\": 1}, \"4\": {\"H\": 1}, \"5\": {\"H\": 1}, \"6\": {\"H\": 1}, \"7\": {\"H\": 1}, \"8\": {\"H\": 1}, \"9\": {\"H\": 1}, \"10\": {\"H\": 1}, \"11\": {\"H\": 1}, \"12\": {\"H\": 1}, \"13\": {\"H\": 1}, \"14\": {\"H\": 1}, \"15\": {\"H\": 1}, \"16\": {\"H\": 1}, \"17\": {\"H\": 1}, \"18\": {\"H\": 1}, \"19\": {\"H\": 1}, \"20\": {\"H\": 1}, \"21\": {\"H\": 1}, \"22\": {\"H\": 1}, \"23\": {\"H\": 1}, \"24\": {\"H\": 1}, \"25\": {\"H\": 1}, \"26\": {\"H\": 1}, \"27\": {\"H\": 1}, \"28\": {\"H\": 1}, \"29\": {\"H\": 1}, \"30\": {\"C\": 1}, \"31\": {\"C\": 1}, \"32\": {\"C\": 1}, \"33\": {\"C\": 1}, \"34\": {\"C\": 1}, \"35\": {\"C\": 1}, \"36\": {\"C\": 1}, \"37\": {\"C\": 1}, \"38\": {\"C\": 1}, \"39\": {\"C\": 1}, \"40\": {\"C\": 1}, \"41\": {\"C\": 1}, \"42\": {\"C\": 1}, \"43\": {\"C\": 1}, \"44\": {\"C\": 1}, \"45\": {\"C\": 1}, \"46\": {\"C\": 1}, \"47\": {\"C\": 1}, \"48\": {\"C\": 1}, \"49\": {\"C\": 1}, \"50\": {\"C\": 1}, \"51\": {\"C\": 1}, \"52\": {\"C\": 1}, \"53\": {\"C\": 1}, \"54\": {\"C\": 1}, \"55\": {\"C\": 1}, \"56\": {\"C\": 1}, \"57\": {\"C\": 1}, \"58\": {\"N\": 1}, \"59\": {\"N\": 1}, \"60\": {\"N\": 1}, \"61\": {\"N\": 1}, \"62\": {\"O\": 1}, \"63\": {\"O\": 1}, \"64\": {\"O\": 1}, \"65\": {\"O\": 1}, \"66\": {\"O\": 1}, \"67\": {\"O\": 1}, \"68\": {\"O\": 1}, \"69\": {\"O\": 1}, \"70\": {\"O\": 1}, \"71\": {\"O\": 1}}" energy=-467.23846435546875 free_energy=-467.23846435546875 stress="-0.003726908704265952 -0.001123993657529354 0.0012837860267609358 -0.001123993657529354 -0.0067726061679422855 -0.007154606748372316 0.0012837860267609358 -0.007154606748372316 0.0015669572167098522" pbc="T T T"
Cd       6.40849511       6.39225634       3.87002144        0      -0.27876109       0.54649913       0.51434720
Cd       2.25511806       2.97660535      11.59521443        1      -0.06938697      -0.50778413      -0.38076228
H        4.06769482       1.35964144      10.20456956        2      -0.03296893      -0.13056643      -0.05100739
H        3.12303903       4.11046230      13.82780815        3       0.61364806       0.21772152      -0.10179465
H        4.53453308       8.04705108       5.30002453        4      -0.78865492       0.14324713      -0.14862435
H        5.50558077       5.25747796       1.66939152        5      -0.75621867      -0.20366819      -0.00730476
H        5.22379697       8.71315327      10.34848000        6      -0.42305773      -0.96610498       0.13825746
H        1.86715573       5.12616157      13.49146648        7      -0.06213661       0.68653291      -0.26368880
H        3.37782502       0.63726154       5.15494161        8       0.60399532       1.39470315      -0.24346244
H        6.78329676       4.24991047       2.02935341        9      -0.21718124       0.30586848      -0.04851415
H        4.03633261       4.10370597       6.43301994       10      -0.07788533      -0.03696483       0.06839149
H        4.28421090       8.25052228       1.82981650       11      -0.14752091       0.30856550      -0.15789101
H        4.58764278       5.21544427       9.02904113       12       0.42559299       0.46491534      -0.07546911
H        4.32592458       1.10991053      13.63450739       13       0.89069235      -1.29980171       1.09115553
H        5.97319128       2.36448350       6.67844662       14      -0.20384492      -0.02257785      -0.03167766
H        4.18772698       2.67368459       0.98252366       15       0.66533774      -0.08991470      -0.28820911
H        2.65443211       6.98282060       8.82912586       16      -0.58640760      -0.15608789      -0.17711446
H        4.45811004       6.69081913      14.49209874       17      -1.00210702       0.31823233       0.31865233
H        0.76278546       1.06730507       8.68071000       18       0.82208323       0.65156901      -0.11470862
H        5.53440242       4.87607139      14.48369147       19       0.25664428      -0.28844148       0.37539676
H        7.86206192       8.26314429       6.76396120       20      -0.46961588      -0.26592329       0.32002303
H        3.04818739       4.47307776       1.02510943       21       0.06505011       0.27358899      -0.34215167
H        4.67258653       2.93607943       8.54569771       22       0.58627248      -0.07048362       0.32526168
H        3.02376058       2.34518113      15.43299478       23       0.29927433      -0.20201048      -0.17959383
H        3.93164473       6.41291327       6.95458464       24       1.12357879       0.13544911       0.25836611
H        5.61057321       7.06750903       0.05171345       25      -0.35736385       0.02333099       0.28472099
H        3.66832008       5.49020816       3.90059607       26       0.01910222      -0.08700731       0.13519520
H        3.48884306       6.78555895       3.08163768       27       0.61705786      -0.64622211       0.13450032
H        4.98951046       3.88523266      11.59017728       28       0.50789106       0.33193737      -0.64309281
H        5.11610590       2.57966862      12.41391536       29       0.27577028      -0.08513803      -0.19162202
C        2.01586606       3.34632281       6.47860621       30      -0.63844973       0.46375978      -1.04011047
C        5.74927434       1.33368337       1.55142160       31       0.51987970       0.21140972      -0.64952099
C        6.64865755       6.02718387       9.02236952       32      -2.74780488      -2.18082905       1.85583591
C        2.86567634       8.02056335      13.99494638       33       0.90812790       0.97554731      -1.55727077
C        1.53916414       4.33790272       5.40329041       34      -1.14893842      -1.71426177       1.44919419
C        4.95706094       0.70503558       2.64971485       35      -0.73670560       1.43753648      -0.63382292
C        7.10265410       5.07400913      10.06711731       36       1.81684184      -1.21395671       1.21238065
C        3.69364409       8.64685754      12.85123195       37       0.30054376      -1.49959087       1.03428233
C        3.33078894       3.44846620       6.94440201       38       0.11351076      -0.38999465       0.91955191
C        1.16295048       0.90315102       1.23451128       39       1.24432707      -0.23168153      -0.85359609
C        5.29743817       5.92098596       8.56337553       40       0.63259721      -0.52897298      -0.39011893
C        7.47542006       8.44570576      14.30122513       41      -2.57577229       2.17188740      -0.97242308
C        2.74322686       1.92572847       8.76237964       42       2.77515173       0.83816803       0.05175464
C        1.42235964       3.66740301      14.80750789       43       1.20863497      -0.56732357      -0.08051693
C        5.85102083       7.42379113       6.75790870       44       0.37617368       1.15355945      -1.75942421
C        7.22427271       5.72909127       0.66915214       45      -1.46534777      -0.40523162       1.37260675
C        1.09806434       2.45988379       7.08359551       46       1.35014117       0.75137192       0.05943552
C        5.22043352       2.34224192       0.72451218       47      -1.14400363       0.34503967       0.27403975
C        7.49028671       6.87495076       8.44702100       48       2.44043255       2.77007198      -2.28891230
C        3.42286741       7.04653957      14.76909092       49       1.91922021      -1.98671007       1.08209491
C        1.51394572       1.78155226       8.23169876       50      -3.31422997      -1.37165749      -0.95028090
C        6.03261061       4.12567855      15.12810781       51      -1.40333009       0.01972482       0.32033747
C        7.11824774       7.62469575       7.28357155       52       0.79913592      -0.36674309       0.87957382
C        2.62302716       5.25820194       0.38147679       53       0.65423894       0.23648714      -0.58752495
C        3.70946180       2.76017359       8.10896881       54      -1.40213609      -0.10878387      -0.67527634
C        1.88316243       1.42682534       0.12674980       55      -1.33966684       0.49919054       0.75184327
C        4.97351450       6.55784168       7.37940167       56      -2.40674043      -0.40945575       0.41744459
C        6.73712226       7.94410541      15.37021478       57       1.20430911      -0.31697908      -0.49264520
N        3.06322413       1.40163367      10.01269265       58       0.59524846       0.98850679       0.45055127
N        2.12313237       4.17371330      13.68646740       59      -0.49878466      -0.74811947       0.67153037
N        5.52346096       7.95143948       5.44259277       60       0.41406885      -2.14847612       1.46039152
N        6.50287107       5.21816603       1.80624959       61       1.36389232      -0.12259158      -0.74786818
O        6.19217887       4.29319541       5.04439483       62      -0.09878713      -0.22822316      -0.22203049
O        3.84591683       1.22447367       2.95427902       63       0.52863759      -0.79583263       0.17914265
O        2.48748118       5.05343241      10.47600353       64      -2.13405919       0.44678074      -0.76991224
O        4.81182683       8.14175791      12.55864605       65      -0.50724995       0.49124071       0.02809956
O        2.30631680       5.25344793       5.02377396       66       1.51371396       1.01996732      -0.53911871
O        8.09089140       7.76414079       3.15752059       67      -0.08522099      -0.52339923       0.48175275
O        6.29340452       4.14685600      10.49277161       68       0.32490993       0.95814830      -0.47264242
O        0.56409923       1.56442287      12.31426177       69      -0.11739333       0.83616221      -0.45518488
O        4.14895138       6.00127858       3.20187433       70      -0.46908653       0.74325442      -0.06650480
O        4.51062865       3.34764008      12.24519730       71      -1.06890941      -0.24246477       0.73528337
72
Lattice="5.87130282 0.0 0.0 2.6304804408279967 8.132354174633951 0.0 0.12793099696461338 1.2323007323960995 15.494161025536787" Properties=species:S:1:pos:R:3:spacegroup_kinds:I:1:forces:R:3 spacegroup="P 1" unit_cell=conventional occupancy="_JSON {\"0\": {\"Cd\": 1}, \"1\": {\"Cd\": 1}, \"2\": {\"H\": 1}, \"3\": {\"H\": 1}, \"4\": {\"H\": 1}, \"5\": {\"H\": 1}, \"6\": {\"H\": 1}, \"7\": {\"H\": 1}, \"8\": {\"H\": 1}, \"9\": {\"H\": 1}, \"10\": {\"H\": 1}, \"11\": {\"H\": 1}, \"12\": {\"H\": 1}, \"13\": {\"H\": 1}, \"14\": {\"H\": 1}, \"15\": {\"H\": 1}, \"16\": {\"H\": 1}, \"17\": {\"H\": 1}, \"18\": {\"H\": 1}, \"19\": {\"H\": 1}, \"20\": {\"H\": 1}, \"21\": {\"H\": 1}, \"22\": {\"H\": 1}, \"23\": {\"H\": 1}, \"24\": {\"H\": 1}, \"25\": {\"H\": 1}, \"26\": {\"H\": 1}, \"27\": {\"H\": 1}, \"28\": {\"H\": 1}, \"29\": {\"H\": 1}, \"30\": {\"C\": 1}, \"31\": {\"C\": 1}, \"32\": {\"C\": 1}, \"33\": {\"C\": 1}, \"34\": {\"C\": 1}, \"35\": {\"C\": 1}, \"36\": {\"C\": 1}, \"37\": {\"C\": 1}, \"38\": {\"C\": 1}, \"39\": {\"C\": 1}, \"40\": {\"C\": 1}, \"41\": {\"C\": 1}, \"42\": {\"C\": 1}, \"43\": {\"C\": 1}, \"44\": {\"C\": 1}, \"45\": {\"C\": 1}, \"46\": {\"C\": 1}, \"47\": {\"C\": 1}, \"48\": {\"C\": 1}, \"49\": {\"C\": 1}, \"50\": {\"C\": 1}, \"51\": {\"C\": 1}, \"52\": {\"C\": 1}, \"53\": {\"C\": 1}, \"54\": {\"C\": 1}, \"55\": {\"C\": 1}, \"56\": {\"C\": 1}, \"57\": {\"C\": 1}, \"58\": {\"N\": 1}, \"59\": {\"N\": 1}, \"60\": {\"N\": 1}, \"61\": {\"N\": 1}, \"62\": {\"O\": 1}, \"63\": {\"O\": 1}, \"64\": {\"O\": 1}, \"65\": {\"O\": 1}, \"66\": {\"O\": 1}, \"67\": {\"O\": 1}, \"68\": {\"O\": 1}, \"69\": {\"O\": 1}, \"70\": {\"O\": 1}, \"71\": {\"O\": 1}}" energy=-466.3702392578125 free_energy=-466.3702392578125 stress="-0.006902299355715513 -0.002425616607069969 0.002087252214550972 -0.002425616607069969 -0.009183499962091446 -0.005312791559845209 0.002087252214550972 -0.005312791559845209 0.0006477416027337313" pbc="T T T"
Cd       6.38383453       6.41886310       3.85161840        0      -0.07356358       0.31837791       0.73752493
Cd       2.27382988       3.00265352      11.56845304        1      -0.23507185      -0.95273793      -0.06018686
H        4.05989837       1.33981436      10.19398428        2       1.04101324      -0.14028886       0.11096354
H        3.14770021       4.13651322      13.84011562        3       0.36623949       0.25940913      -0.21092108
H        4.52074466       8.02931050       5.32196531        4      -0.38354897       0.29436636      -0.17233276
H        5.51804914       5.28458807       1.69686440        5      -2.69483471      -0.27389899      -0.22396325
H        5.22401251       8.72876888      10.36353763        6      -0.65050894      -1.22494149       0.26725811
H        1.87926566       5.09803859      13.46369949        7      -0.55765492       2.30432892      -0.49447790
H        3.38015481       0.66453944       5.18342350        8       0.17516918       0.98757404      -0.16623746
H        6.80439526       4.23104995       2.05549702        9      -0.77158648       1.39441049      -0.43349761
H        4.01867039       4.09168319       6.42901552       10       0.17421959       0.27652505       0.07411611
H        4.29271791       8.27540007       1.84118189       11      -0.03788793       0.07402490       0.05193799
H        4.57790271       5.19806482       9.05729563       12       0.42244971       0.44253165      -0.20942160
H        4.31843486       1.11404727      13.63049220       13       0.91252482      -1.31831479       1.26866639
H        5.99373845       2.35580220       6.67176879       14      -0.71867609      -0.12353618      -0.19024265
H        4.17057321       2.69293502       0.96128291       15       1.44877744      -0.32161808      -0.31842503
H        2.65492524       6.97271481       8.84448221       16       0.05582163      -0.00438088      -0.09895258
H        4.47296031       6.68619979      14.49603410       17      -1.85747385       0.61100680       0.62852526
H        0.78367537       1.05471733       8.69993221       18       0.22121146       0.11418512       0.15627725
H        5.52736511       4.86425521      14.47505139       19       0.48614380      -0.30624184       0.59995174
H        7.83586940       8.25723461       6.75157796       20      -0.46008262      -0.38680768       0.30060461
H        3.03007218       4.48521208       1.05382961       21       0.15115932       0.30206344      -0.41384059
H        4.69311625       2.91399228       8.55498893       22      -0.18278804      -0.19604531      -0.14942117
H        3.04969471       2.33895861      15.45158706       23      -1.00746608       0.19602922      -0.06606771
H        3.94014964       6.41533773       6.92837684       24       1.35864806       0.26270866       0.42187297
H        5.60264314       7.08448579       0.04025657       25      -0.00549710      -0.11423066       0.22233170
H        3.65302247       5.48269820       3.88193856       26       0.08363453      -0.17062867       0.22598663
H        3.50786536       6.76056349       3.07435305       27       0.35547245      -0.24696726       0.00711410
H        4.96732434       3.86999652      11.59613422       28       1.28727674       1.36363220      -1.74007082
H        5.13697617       2.59963873      12.39501045       29       0.63934660      -0.71989787      -0.04233803
C        2.02211423       3.37527906       6.48759857       30      -1.75753605      -0.63202393      -0.29179674
C        5.73664746       1.32255504       1.52831190       31       0.63363415       0.08481584       0.37222502
C        6.66334715       6.05074025       9.02864970       32      -3.93089557      -3.44651723       2.40317059
C        2.87718188       7.99624873      13.98268764       33      -1.73192716       2.17003131      -0.72127831
C        1.56759365       4.35843437       5.41031501       34      -3.03794408      -2.14246273       1.11967778
C        4.93610643       0.72341936       2.66562268       35       1.37597120       0.65036285      -1.62072086
C        7.09822991       5.06209703      10.08017048       36       1.43463540       0.08686168       0.07333219
C        3.66573112       8.62188801      12.88083722       37       1.21030748      -0.58680356      -0.57007277
C        3.31639153       3.47427237       6.97410161       38       0.37837282      -0.34215501       0.10391912
C        1.16107869       0.91240515       1.25514491       39       0.98720950       0.02669165      -1.63364065
C        5.28351853       5.89207780       8.57375482       40       1.64609623       1.04087532      -1.34041476
C        7.45575614       8.45647649      14.32433730       41      -0.24463667       2.28096461      -3.09666395
C        2.74086769       1.91681246       8.74968885       42       3.04552269       0.65373582       0.29471540
C        1.44255124       3.65978234      14.80833054       43       0.48906869       0.60582232      -0.92113113
C        5.85210299       7.43550286       6.75691355       44      -0.09312049       0.85272646      -2.04617691
C        7.19951519       5.71981608       0.64136567       45      -0.83732891      -0.70918608       1.91485405
C        1.09399414       2.43770864       7.10024395       46       2.25028253       1.69910014      -0.40126276
C        5.24413597       2.35759078       0.73498517       47      -2.31400514       0.75242424      -0.08086487
C        7.51560039       6.86940045       8.45835155       48       1.33465004       3.18317986      -3.38368058
C        3.39750379       7.05896728      14.79034107       49       3.97777867      -2.88337922       0.60636580
C        1.49988344       1.75267075       8.24797598       50      -2.46020246      -0.47589698      -1.57544076
C        6.05783366       4.15076235      15.15057189       51      -1.28813028      -0.10225457      -0.24255344
C        7.09926448       7.59689179       7.26282406       52       2.69578838       0.18409081       1.76134264
C        2.62284897       5.26962261       0.39834578       53      -0.35651177       0.21695322      -0.28672346
C        3.71412653       2.74920614       8.08486540       54      -0.84183455      -0.40438908       0.74033189
C        1.85654686       1.42809823       0.11514996       55       0.90079075      -0.59884006       1.30884790
C        4.98480540       6.58229713       7.37824939       56      -3.42524886      -1.90157413       1.43632233
C        6.74021495       7.95784109      15.35141408       57      -0.35632133      -0.69887501       0.82562649
N        3.08343640       1.38081994       9.99299513       58      -0.30371442       1.38652229       0.03523922
N        2.14571405       4.18679875      13.66666710       59      -0.04197602      -2.80820346       1.66365266
N        5.52403923       7.95641742       5.43832850       60       0.33638793      -1.73362970       1.23623085
N        6.47934654       5.20828737       1.77729555       61       3.78556156      -0.96950859      -0.25356495
O        6.18883835       4.28907414       5.02076826       62       1.61081088       0.11438613       0.14662664
O        3.85958499       1.24689312       2.94536101       63      -1.20767498      -0.13660705       0.80418563
O        2.46883924       5.03236873      10.46568570       64      -1.09097660       0.35708037      -0.33199400
O        4.79252579       8.12814604      12.57077927       65      -0.59519500       0.36090246       0.23260160
O        2.32731936       5.27100497       5.04523975       66       1.54438293       1.31752300      -0.75240433
O        8.10039774       7.78927963       3.17805088       67      -0.45011508      -0.46645659       0.55257726
O        6.27698103       4.17253652      10.48048588       68      -0.26062474       0.09274908      -0.00279676
O        0.56085109       1.54545276      12.28805242       69      -0.05524150       0.36855537       0.12345394
O        4.14790885       5.98034430       3.18387338       70      -0.34925151       0.51254559       0.00489505
O        4.51400158       3.33197395      12.21942951       71      -2.14930248      -0.66077220       1.71025372
72
Lattice="5.87130282 0.0 0.0 2.6304804408279967 8.132354174633951 0.0 0.12793099696461338 1.2323007323960995 15.494161025536787" Properties=species:S:1:pos:R:3:spacegroup_kinds:I:1:forces:R:3 spacegroup="P 1" unit_cell=conventional occupancy="_JSON {\"0\": {\"Cd\": 1}, \"1\": {\"Cd\": 1}, \"2\": {\"H\": 1}, \"3\": {\"H\": 1}, \"4\": {\"H\": 1}, \"5\": {\"H\": 1}, \"6\": {\"H\": 1}, \"7\": {\"H\": 1}, \"8\": {\"H\": 1}, \"9\": {\"H\": 1}, \"10\": {\"H\": 1}, \"11\": {\"H\": 1}, \"12\": {\"H\": 1}, \"13\": {\"H\": 1}, \"14\": {\"H\": 1}, \"15\": {\"H\": 1}, \"16\": {\"H\": 1}, \"17\": {\"H\": 1}, \"18\": {\"H\": 1}, \"19\": {\"H\": 1}, \"20\": {\"H\": 1}, \"21\": {\"H\": 1}, \"22\": {\"H\": 1}, \"23\": {\"H\": 1}, \"24\": {\"H\": 1}, \"25\": {\"H\": 1}, \"26\": {\"H\": 1}, \"27\": {\"H\": 1}, \"28\": {\"H\": 1}, \"29\": {\"H\": 1}, \"30\": {\"C\": 1}, \"31\": {\"C\": 1}, \"32\": {\"C\": 1}, \"33\": {\"C\": 1}, \"34\": {\"C\": 1}, \"35\": {\"C\": 1}, \"36\": {\"C\": 1}, \"37\": {\"C\": 1}, \"38\": {\"C\": 1}, \"39\": {\"C\": 1}, \"40\": {\"C\": 1}, \"41\": {\"C\": 1}, \"42\": {\"C\": 1}, \"43\": {\"C\": 1}, \"44\": {\"C\": 1}, \"45\": {\"C\": 1}, \"46\": {\"C\": 1}, \"47\": {\"C\": 1}, \"48\": {\"C\": 1}, \"49\": {\"C\": 1}, \"50\": {\"C\": 1}, \"51\": {\"C\": 1}, \"52\": {\"C\": 1}, \"53\": {\"C\": 1}, \"54\": {\"C\": 1}, \"55\": {\"C\": 1}, \"56\": {\"C\": 1}, \"57\": {\"C\": 1}, \"58\": {\"N\": 1}, \"59\": {\"N\": 1}, \"60\": {\"N\": 1}, \"61\": {\"N\": 1}, \"62\": {\"O\": 1}, \"63\": {\"O\": 1}, \"64\": {\"O\": 1}, \"65\": {\"O\": 1}, \"66\": {\"O\": 1}, \"67\": {\"O\": 1}, \"68\": {\"O\": 1}, \"69\": {\"O\": 1}, \"70\": {\"O\": 1}, \"71\": {\"O\": 1}}" energy=-465.6875 free_energy=-465.6875 stress="-0.01399937178939581 0.000984713900834322 0.0023307681549340487 0.000984713900834322 -0.007960238493978977 -0.007230105809867382 0.0023307681549340487 -0.007230105809867382 0.001848345622420311" pbc="T T T"
Cd       6.36244169       6.42867951       3.87569362        0       0.25724947       0.21292593       0.40957677
Cd       2.24736055       3.00225187      11.57599229        1      -0.14622213      -0.92148399      -0.07490975
H        4.03090721       1.36105429      10.18617713        2       4.16210651      -0.30032516       0.77999890
H        3.12201155       4.11610768      13.82876927        3       0.50351191       0.21715827      -0.16817617
H        4.50881492       8.02539375       5.31078129        4       0.20721734       0.09538563      -0.01789205
H        5.51710010       5.25547186       1.72170701        5      -3.57539511      -0.19471440      -0.36260605
H        5.24511963       8.75050657      10.34047018        6      -1.56305492      -2.92874002       1.05857873
H        1.90006590       5.09642312      13.44847372        7      -0.92847574       3.29461694      -0.59191531
H        3.36143523       0.66786309       5.15615079        8       0.02724892       0.48275173       0.02711600
H        6.80258777       4.25001573       2.05143854        9      -0.45011601       0.31215665      -0.11771289
H        4.02673424       4.08120366       6.42773941       10      -0.21240152       0.25028074       0.15589792
H        4.29816664       8.28469057       1.83550565       11      -0.14235678       0.15636198      -0.07107697
H        4.60421337       5.18808315       9.08598204       12       0.43886796       0.41319126      -0.24711835
H        4.33729268       1.10556701      13.61676046       13       0.99088639      -1.45598125       1.54512382
H        5.96921458       2.33034807       6.67631939       14       0.11187531      -0.02716477       0.07854830
H        4.18024976       2.67960710       0.93934788       15       0.48472291       0.09171823      -0.14106826
H        2.64380579       6.96140887       8.84455496       16       0.91645122       0.11971995       0.16809762
H        4.49482923       6.71069598      14.47025382       17      -2.29857945       0.49945137       1.02206087
H        0.79827864       1.02962326       8.67128984       18      -0.20881699      -0.17440021       0.45221150
H        5.52710047       4.86281447      14.46047202       19       0.75985682      -0.73469186       1.00730097
H        7.86513471       8.25038250       6.72811459       20      -0.55273569      -0.45508176       0.56892562
H        3.02112481       4.48521034       1.07446469       21       0.04380564       0.50608218      -0.47163182
H        4.66779535       2.92959550       8.55556052       22       0.23112163      -0.07123926       0.00878455
H        3.07186862       2.31174272      15.42260079       23      -2.10429430       0.50429189       0.19731307
H        3.91730898       6.38555517       6.95199103       24       1.68057799       0.47830045       0.52755874
H        5.62323610       7.06136632       0.06574038       25      -0.90929049       0.28354356       0.21190313
H        3.66364784       5.51200791       3.87184694       26      -0.96631330      -1.31732047       1.72963715
H        3.51421382       6.76100529       3.10195720       27       0.07318883       0.09764946      -0.15652154
H        4.93769391       3.87115797      11.57691123       28       0.77951336       0.79732060      -1.03190708
H        5.14299161       2.60658982      12.40170074       29       0.20777038      -0.29664287      -0.12923597
C        2.03438383       3.34653667       6.48891495       30      -3.16194820      -0.30068284      -1.24113560
C        5.71425408       1.33602805       1.54177624       31       1.65772259       0.21796033      -0.29254630
C        6.68419137       6.04783678       9.04085883       32      -4.01863527      -2.96301961       1.50779545
C        2.85654753       7.98397608      13.97254968       33      -0.26703542       1.30258608      -0.18451327
C        1.57189632       4.32933767       5.38106074       34      -1.35285830      -0.39928982       1.43251145
C        4.90643870       0.74917034       2.67339237       35       4.37280560      -1.54089558      -2.15102434
C        7.11941347       5.07093884      10.06600294       36      -0.36586025      -0.76447004       0.79212207
C        3.65238814       8.61866976      12.87060865       37       1.79304373      -0.62967825      -0.79237252
C        3.28780018       3.49097249       6.97350715       38       2.04799199      -0.41275626       0.42104641
C        1.16740631       0.91512430       1.22995188       39      -0.83477360      -0.48140615       0.31218874
C        5.30482396       5.87703657       8.58841343       40       1.40378714       1.47956824      -1.46172667
C        7.47760588       8.44530163      14.33685822       41      -1.81614721       2.98197937      -3.47512197
C        2.75258512       1.90951561       8.72907364       42       2.25515294       0.45884928       1.21305323
C        1.42019653       3.65263913      14.82973258       43       1.21914279       0.82707965      -1.75859201
C        5.86327427       7.44520882       6.75405797       44      -0.22628853       0.19961213      -0.96999413
C        7.20192495       5.72088030       0.63412386       45      -2.15272570      -0.79145765       2.71117926
C        1.09179529       2.41417084       7.11606115       46       1.01842594       2.31542444      -1.93339729
C        5.22296287       2.36993536       0.73442950       47      -1.44027746      -0.37443495       0.53057247
C        7.53026666       6.87309212       8.45480731       48       0.58404183       2.84579802      -2.99665689
C        3.39365041       7.04975134      14.81333386       49       4.18401384      -2.02051878      -0.61965740
C        1.47173120       1.75618272       8.24246343       50      -0.33110404      -0.86266756      -0.26520529
C        6.05355139       4.12600126      15.15967233       51      -2.15945435       1.19936788      -1.04134488
C        7.12636829       7.62059876       7.28970534       52       1.35442686       0.01472466       0.41621521
C        2.61464026       5.28397976       0.42313176       53       0.60395110      -0.38551781      -0.38851187
C        3.70517176       2.76496115       8.08491866       54      -1.35759377      -0.71783066       0.74879158
C        1.82834641       1.40878113       0.12332524       55       2.89813161      -0.38399446      -0.13181758
C        4.96886051       6.59325219       7.40698988       56      -2.35919809      -1.53524566       0.82260710
C        6.72713258       7.94596122      15.34283577       57       0.87339222      -1.09997416       0.93729138
N        3.10417423       1.37482860      10.01698267       58      -2.87478304       3.58889484      -2.63580036
N        2.12173068       4.19830886      13.67621049       59       0.13481426      -4.17107391       2.15116882
N        5.52869626       7.93251037       5.41604067       60       0.01943115      -0.89544880       1.38348627
N        6.46435146       5.18755283       1.78831727       61       4.76639175       0.31339324      -0.93132383
O        6.20790721       4.31541246       5.01650360       62       0.90217316      -0.35312152      -0.13063034
O        3.84680536       1.22656648       2.93171625       63      -3.78558135       1.12844944       1.56445968
O        2.44344715       5.03280452      10.48814060       64       0.37633571       0.44311461      -0.16374880
O        4.79387034       8.10344545      12.57266577       65      -1.66364527       0.98427570       0.34352773
O        2.34986456       5.28578339       5.05588055       66       0.48013884      -0.14199638      -0.35798469