82
Lattice="11.05892207 0.0 0.0 -0.5853454385538902 16.393429247045 0.0 -0.12081288080260527 -1.635568753966561 17.743425571924867" Properties=species:S:1:pos:R:3:spacegroup_kinds:I:1:forces:R:3 spacegroup="P 1" unit_cell=conventional occupancy="_JSON {\"0\": {\"Zn\": 1}, \"1\": {\"Zn\": 1}, \"2\": {\"H\": 1}, \"3\": {\"H\": 1}, \"4\": {\"H\": 1}, \"5\": {\"H\": 1}, \"6\": {\"H\": 1}, \"7\": {\"H\": 1}, \"8\": {\"H\": 1}, \"9\": {\"H\": 1}, \"10\": {\"H\": 1}, \"11\": {\"H\": 1}, \"12\": {\"H\": 1}, \"13\": {\"H\": 1}, \"14\": {\"H\": 1}, \"15\": {\"H\": 1}, \"16\": {\"H\": 1}, \"17\": {\"H\": 1}, \"18\": {\"H\": 1}, \"19\": {\"H\": 1}, \"20\": {\"H\": 1}, \"21\": {\"H\": 1}, \"22\": {\"H\": 1}, \"23\": {\"H\": 1}, \"24\": {\"H\": 1}, \"25\": {\"H\": 1}, \"26\": {\"H\": 1}, \"27\": {\"H\": 1}, \"28\": {\"C\": 1}, \"29\": {\"C\": 1}, \"30\": {\"C\": 1}, \"31\": {\"C\": 1}, \"32\": {\"C\": 1}, \"33\": {\"C\": 1}, \"34\": {\"C\": 1}, \"35\": {\"C\": 1}, \"36\": {\"C\": 1}, \"37\": {\"C\": 1}, \"38\": {\"C\": 1}, \"39\": {\"C\": 1}, \"40\": {\"C\": 1}, \"41\": {\"C\": 1}, \"42\": {\"C\": 1}, \"43\": {\"C\": 1}, \"44\": {\"C\": 1}, \"45\": {\"C\": 1}, \"46\": {\"C\": 1}, \"47\": {\"C\": 1}, \"48\": {\"C\": 1}, \"49\": {\"C\": 1}, \"50\": {\"C\": 1}, \"51\": {\"C\": 1}, \"52\": {\"C\": 1}, \"53\": {\"C\": 1}, \"54\": {\"C\": 1}, \"55\": {\"C\": 1}, \"56\": {\"C\": 1}, \"57\": {\"C\": 1}, \"58\": {\"C\": 1}, \"59\": {\"C\": 1}, \"60\": {\"C\": 1}, \"61\": {\"C\": 1}, \"62\": {\"C\": 1}, \"63\": {\"C\": 1}, \"64\": {\"C\": 1}, \"65\": {\"C\": 1}, \"66\": {\"C\": 1}, \"67\": {\"C\": 1}, \"68\": {\"N\": 1}, \"69\": {\"N\": 1}, \"70\": {\"O\": 1}, \"71\": {\"O\": 1}, \"72\": {\"O\": 1}, \"73\": {\"O\": 1}, \"74\": {\"O\": 1}, \"75\": {\"O\": 1}, \"76\": {\"O\": 1}, \"77\": {\"O\": 1}, \"78\": {\"O\": 1}, \"79\": {\"O\": 1}, \"80\": {\"O\": 1}, \"81\": {\"O\": 1}}" energy=-562.2385864257812 free_energy=-562.2385864257812 stress="0.0005315737798810005 -2.8871487302239984e-05 8.560799324186519e-05 -2.8871487302239984e-05 0.000249529373832047 -4.32932902185712e-05 8.560799324186519e-05 -4.32932902185712e-05 0.000650997506454587" pbc="T T T"
Zn       5.17592512       5.97855553       8.89637244        0      -0.00210451       0.03293300       0.00235265
Zn       5.16118919       8.76811431       8.99141126        1      -0.00654484      -0.04134768       0.04447658
H        3.66765959      10.98543088       7.60803476        2       0.00029966      -0.02719587      -0.00105686
H        3.63275344      13.45591310       7.61551143        3      -0.01070340      -0.02582643      -0.01346431
H        6.81305224      13.25429723      10.58928021        4       0.03807387      -0.00157692       0.03580499
H        6.68349251      10.83904158      10.42938943        5      -0.03447522       0.00020577      -0.02674603
H        3.57864132       1.50920412       7.14315593        6      -0.03291410       0.01089567      -0.02500062
H        6.73018883       1.26638482      10.14147252        7      -0.00100161       0.04581610      -0.00003533
H        6.67702805       3.73759897      10.20582742        8      -0.02609131       0.00892194      -0.01865814
H        3.66933596       3.92581245       7.37841317        9       0.04168086      -0.00853190       0.04681732
H        5.20010492       9.70375848       4.72433611       10      -0.00943034      -0.00477278      -0.00647988
H        5.22950961       9.81078940       2.26851902       11      -0.00333536       0.03934327       0.00506742
H        5.21803128       5.46582190       2.17153301       12      -0.00428599      -0.01829816       0.01439303
H        5.18894490       5.42601440       4.58284148       13      -0.00928256      -0.00222005      -0.02756764
H        5.13702013       9.31080649      15.73655604       14      -0.00162780      -0.00044999      -0.02963390
H        5.12298973       4.96648349      15.58043060       15       0.00430147      -0.04850246      -0.00445753
H        5.14474786       5.11341181      13.12262816       16       0.00428303       0.01928885       0.03138819
H        5.16388651       9.38982950      13.33246199       17       0.00298490      -0.01810928       0.01986644
H        8.22172196       9.20997441       7.04936537       18       0.01508705      -0.01759873       0.07174921
H        9.47190457      10.71514376       5.54960989       19       0.00479330      -0.02422704       0.01945571
H        2.14254447       9.10800319       6.98572979       20      -0.05643158      -0.01281124       0.06965561
H        0.91406597      10.66225485       5.50975356       21      -0.00590004      -0.03886688       0.04127082
H        0.88825213       5.72123345      10.12606311       22      -0.00900131      -0.01934299      -0.00377202
H        9.44278789       5.74151498      10.13348039       23      -0.00330959      -0.01191381      -0.00406269
H        6.63199946      14.88297804      10.56286582       24       0.03468709       0.12452811       0.03766921
H        3.71360567      -0.14256229       7.19675704       25       0.00093747      -0.13482605      -0.02085809
H        5.21288745       5.73451144       0.58793160       26       0.00406927      -0.08011274      -0.19354866
H        5.14016725       9.02594093      17.29490952       27      -0.00675986       0.01266301       0.30774766
C        5.16147901       7.51141205       6.31222147       28       0.00377259      -0.10833648       0.01522255
C        2.54969312       7.31665842       8.84543380       29       0.00707471      -0.04239137      -0.04697683
C        5.18179163       7.33354198      11.56494888       30      -0.01626066      -0.05344155      -0.01833403
C        7.79147384       7.35383767       8.86807129       31      -0.00422680      -0.05778360      -0.02488446
C        4.34193710      11.54981781       8.25073962       32       0.05680674       0.08692577       0.02711970
C        4.33087879      12.93717107       8.26053970       33      -0.09010874       0.05093727      -0.03184483
C        5.20910459      13.64615295       9.11033459       34       0.06146275       0.08611655       0.04584933
C        6.07276651      12.84955772       9.90065061       35       0.04240149       0.07207031       0.03677283
C        6.02272351      11.46644374       9.82908905       36       0.00640905      -0.05429715       0.00259590
C        5.27447449      15.10714874       9.22240532       37       0.20571038      -0.27694258       0.16212490
C        5.09904542      -0.36341927       8.51379114       38      -0.20791276       0.20007864      -0.20288859
C        4.30149007       1.90520598       7.85606164       39      -0.04760831      -0.03715133      -0.04355390
C        5.16135008       1.09400593       8.63705881       40      -0.03935329       0.10405293      -0.00892529
C        6.03247155       1.79483326       9.50346841       41       0.07235965      -0.06922793       0.05415716
C        6.00716466       3.18130661       9.54896798       42      -0.02695370      -0.08210540      -0.02218208
C        4.33408695       3.28959876       7.96597769       43      -0.01642084      -0.02478573      -0.02463281
C        5.18267825       7.55995801       4.81759190       44      -0.02325345       0.03642909      -0.09809700
C        5.19745969       8.78472331       4.13828545       45       0.01903710       0.06606665      -0.07699402
C        5.21675749       8.84238969       2.75077359       46      -0.01544708      -0.02004758      -0.02944420
C        5.21799101       7.66386193       1.96368571       47       0.00292714       0.04023570      -0.03589378
C        5.20914999       6.43499702       2.67374714       48      -0.00555239      -0.11484617      -0.02259466
C        5.19071809       6.38350885       4.06245792       49       0.01974535       0.00881609       0.03036502
C        5.22942504       7.64945166       0.49086846       50       0.03714544      -0.41330591       0.33716568
C        5.12317038       7.11052517      17.38375989       51      -0.03718529       0.46511078      -0.14841148
C        5.14226132       8.34714307      15.22277702       52       0.00224537       0.19149001      -0.06386711
C        5.13300391       7.10901281      15.91523097       53       0.01576071      -0.03360623      -0.04750420
C        5.13495067       5.94205656      15.11132338       54      -0.01443396       0.03963383       0.01437466
C        5.14807877       6.02372704      13.72309896       55       0.01526036      -0.14149061       0.06257108
C        5.16570782       7.25753042      13.06062745       56      -0.01077428      -0.00856769       0.09450543
C        5.15841720       8.42232038      13.83429975       57       0.01216473      -0.02156574       0.00840449
C        9.28659721       7.37018877       8.75859329       58       0.11774564      -0.07652516       0.02756185
C        9.98514786       8.29082017       7.91372002       59      -0.02512704       0.09658277      -0.06442356
C        9.99706823       6.44830217       9.51572915       60       0.09308854      -0.03430161       0.02410418
C        9.31052650       9.19251024       7.04627099       61       0.03330335      -0.06389949       0.07521528
C       10.01505638      10.03625934       6.20887395       62       0.07227190       0.05393130      -0.09591532
C        1.05404162       7.33964337       8.74032093       63      -0.03698060      -0.03825925       0.02205775
C        0.33910229       6.43370428       9.51003598       64      -0.11282744      -0.00822695       0.00505130
C        0.36600265       8.27040400       7.89994041       65      -0.03628495       0.03909334       0.00853017
C        1.05304911       9.14097271       7.01485977       66       0.04688832      -0.02253931      -0.01150553
C        0.36394128      10.00794069       6.18912236       67      -0.08616472       0.06109667      -0.06523710
N        5.17057264      10.81824266       9.02132222       68      -0.03315507       0.05491510      -0.01271072
N        5.17165919       3.92539420       8.79745469       69       0.05817508      -0.05251750       0.03579344
O        5.17339494       6.35974693       6.85889676       70       0.00766963       0.05048603      -0.00614671
O        5.13530660       8.62933607       6.92517100       71      -0.00055850       0.03973410       0.05796091
O        3.13910325       8.43985637       8.96824862       72      -0.01156262       0.06954621      -0.06812255
O        3.11271071       6.17461598       8.83253885       73      -0.02043910       0.00500682       0.02773875
O        5.20652989       8.49515714      11.03931412       74       0.00617769      -0.01671961      -0.02372554
O        5.16444451       6.22505153      10.93214592       75       0.00131587       0.04941055       0.01394426
O        7.23115483       6.20975767       8.89785668       76       0.03060823       0.02262443       0.01858011
O        7.19684685       8.47800354       8.94806891       77      -0.02726651       0.08231676      -0.07944183
O        6.76193645      -0.77552052      10.11453480       78      -0.30365273      -0.10347755      -0.27739066
O        3.61722722      15.51879880       7.61529223       79       0.27236965       0.11646797       0.28505579
O        5.11164189       4.77798476      17.63437496       80      -0.01754885       0.47029042       0.10988470
O        5.24180036       9.98069041       0.25047022       81       0.01916264      -0.44117138      -0.32343164
82
Lattice="11.05892207 0.0 0.0 -0.5853454385538902 16.393429247045 0.0 -0.12081288080260527 -1.635568753966561 17.743425571924867" Properties=species:S:1:pos:R:3:spacegroup_kinds:I:1:forces:R:3 spacegroup="P 1" unit_cell=conventional occupancy="_JSON {\"0\": {\"Zn\": 1}, \"1\": {\"Zn\": 1}, \"2\": {\"H\": 1}, \"3\": {\"H\": 1}, \"4\": {\"H\": 1}, \"5\": {\"H\": 1}, \"6\": {\"H\": 1}, \"7\": {\"H\": 1}, \"8\": {\"H\": 1}, \"9\": {\"H\": 1}, \"10\": {\"H\": 1}, \"11\": {\"H\": 1}, \"12\": {\"H\": 1}, \"13\": {\"H\": 1}, \"14\": {\"H\": 1}, \"15\": {\"H\": 1}, \"16\": {\"H\": 1}, \"17\": {\"H\": 1}, \"18\": {\"H\": 1}, \"19\": {\"H\": 1}, \"20\": {\"H\": 1}, \"21\": {\"H\": 1}, \"22\": {\"H\": 1}, \"23\": {\"H\": 1}, \"24\": {\"H\": 1}, \"25\": {\"H\": 1}, \"26\": {\"H\": 1}, \"27\": {\"H\": 1}, \"28\": {\"C\": 1}, \"29\": {\"C\": 1}, \"30\": {\"C\": 1}, \"31\": {\"C\": 1}, \"32\": {\"C\": 1}, \"33\": {\"C\": 1}, \"34\": {\"C\": 1}, \"35\": {\"C\": 1}, \"36\": {\"C\": 1}, \"37\": {\"C\": 1}, \"38\": {\"C\": 1}, \"39\": {\"C\": 1}, \"40\": {\"C\": 1}, \"41\": {\"C\": 1}, \"42\": {\"C\": 1}, \"43\": {\"C\": 1}, \"44\": {\"C\": 1}, \"45\": {\"C\": 1}, \"46\": {\"C\": 1}, \"47\": {\"C\": 1}, \"48\": {\"C\": 1}, \"49\": {\"C\": 1}, \"50\": {\"C\": 1}, \"51\": {\"C\": 1}, \"52\": {\"C\": 1}, \"53\": {\"C\": 1}, \"54\": {\"C\": 1}, \"55\": {\"C\": 1}, \"56\": {\"C\": 1}, \"57\": {\"C\": 1}, \"58\": {\"C\": 1}, \"59\": {\"C\": 1}, \"60\": {\"C\": 1}, \"61\": {\"C\": 1}, \"62\": {\"C\": 1}, \"63\": {\"C\": 1}, \"64\": {\"C\": 1}, \"65\": {\"C\": 1}, \"66\": {\"C\": 1}, \"67\": {\"C\": 1}, \"68\": {\"N\": 1}, \"69\": {\"N\": 1}, \"70\": {\"O\": 1}, \"71\": {\"O\": 1}, \"72\": {\"O\": 1}, \"73\": {\"O\": 1}, \"74\": {\"O\": 1}, \"75\": {\"O\": 1}, \"76\": {\"O\": 1}, \"77\": {\"O\": 1}, \"78\": {\"O\": 1}, \"79\": {\"O\": 1}, \"80\": {\"O\": 1}, \"81\": {\"O\": 1}}" energy=-562.251220703125 free_energy=-562.251220703125 stress="0.0003918948059435934 -4.9574660806683823e-05 3.2984175049932674e-05 -4.9574660806683823e-05 0.00025279782130382955 -0.00019063740910496563 3.2984175049932674e-05 -0.00019063740910496563 0.0005686271470040083" pbc="T T T"
Zn       5.17608810       5.98030255       8.89579573        0      -0.00144026       0.02167182      -0.00633003
Zn       5.15921925       8.76819467       8.99113959        1       0.00342941      -0.02932277       0.03573279
H        3.66644737      10.98567690       7.60652717        2       0.02202179       0.00007743       0.02009234
H        3.63130704      13.45602982       7.61533416        3      -0.02118021      -0.01249257      -0.02541968
H        6.81378550      13.25514816      10.58935322        4       0.03236847      -0.00546556       0.02917719
H        6.68204142      10.83986550      10.42843840        5      -0.04117934      -0.01071634      -0.03027909
H        3.57682979       1.50999348       7.14212584        6      -0.05278346       0.00196679      -0.04244134
H        6.73026378       1.26756264      10.14066104        7      -0.01215295       0.04844641      -0.00888596
H        6.67549969       3.73872723      10.20517170        8      -0.04542248      -0.01943306      -0.03903639
H        3.66944737       3.92505373       7.37747705        9       0.02375169       0.02114031       0.02382585
H        5.19959047       9.70418057       4.72411917       10      -0.01098523       0.02433975      -0.00627524
H        5.22805381       9.81294415       2.26811440       11      -0.00397288      -0.01760262       0.01373136
H        5.21689449       5.46653778       2.17099479       12      -0.00053863      -0.06283051      -0.01507326
H        5.18756228       5.42684065       4.58154398       13      -0.00845399      -0.01069112      -0.01985534
H        5.13655185       9.31060704      15.73466076       14      -0.00681080       0.07733814       0.00417412
H        5.12246879       4.96672238      15.57989337       15       0.00175107      -0.01069991      -0.01650039
H        5.14353668       5.11396822      13.12268228       16       0.00337254       0.02193716       0.03340263
H        5.16262207       9.39069815      13.33171810       17       0.00288350      -0.03154801       0.01243217
H        8.22138385       9.20874966       7.04893500       18       0.01110505      -0.01082772       0.06793885
H        9.47187413      10.71476974       5.54876040       19      -0.00896034      -0.00465205       0.00257587
H        2.14042431       9.10712692       6.98636057       20      -0.01475143      -0.01200831       0.06301397
H        0.91324244      10.66303855       5.50983688       21       0.00609627      -0.02029355       0.01755381
H        0.88711211       5.72176970      10.12472141       22      -0.00558039      -0.03409121       0.01084138
H        9.44211206       5.74148036      10.13263359       23       0.00945751       0.00698361      -0.02301745
H        6.63087269      14.88472935      10.56286947       24       0.04898967       0.09874085       0.05101562
H        3.71292788      -0.14285593       7.19529270       25       0.04204930      -0.18250626       0.01567739
H        5.21250574       5.73311952       0.58565097       26       0.00341500      -0.08343363      -0.17383987
H        5.13886376       9.02597341      17.29642028       27      -0.00626121       0.04253742       0.27063063
C        5.15975158       7.51172291       6.31141184       28       0.00705962       0.03901207      -0.00906831
C        2.54821539       7.31658895       8.84348785       29       0.02033821      -0.03832839      -0.03842843
C        5.18034684       7.33406280      11.56277161       30      -0.01595563      -0.01111402       0.10054612
C        7.79182577       7.35468747       8.86768042       31      -0.01396897      -0.03505760      -0.03903445
C        4.34093747      11.55151080       8.24986987       32       0.00432935       0.06032655      -0.02867281
C        4.32983870      12.93819091       8.25949662       33      -0.06495570       0.05552454      -0.00152578
C        5.20886933      13.64680413       9.11009435       34       0.06404606       0.06486641       0.04397810
C        6.07308810      12.85137639       9.90023535       35       0.01956235      -0.03673896       0.02438542
C        6.02046176      11.46621194       9.82789047       36       0.04956004       0.04268357       0.02767512
C        5.27587671      15.10587715       9.22400531       37       0.00496197      -0.20110607      -0.03222674
C        5.09614092      -0.36415251       8.51112307       38       0.02446843       0.27899766       0.03137337
C        4.29919413       1.90581772       7.85435588       39       0.01287072      -0.03530480      -0.00224350
C        5.16001429       1.09566004       8.63587336       40      -0.05060844       0.01785707      -0.02198256
C        6.03185102       1.79568099       9.50256182       41       0.06389606      -0.13083439       0.04166602
C        6.00587561       3.18059155       9.54750916       42       0.01729113       0.01993465       0.02311894
C        4.33446816       3.28987443       7.96363955       43      -0.00730979      -0.00729257       0.01217347
C        5.18102192       7.56157494       4.81507217       44      -0.02274819       0.02643048      -0.05733980
C        5.19609980       8.78724403       4.13631526       45       0.01761843      -0.02642480      -0.07203914
C        5.21509352       8.84191493       2.74864733       46      -0.01393242       0.11958237      -0.00006680
C        5.21619827       7.66478284       1.96276299       47       0.01850629      -0.04598514      -0.01221347
C        5.20876144       6.43444412       2.67201387       48      -0.01713689      -0.04586487       0.02813885
C        5.18962370       6.38365137       4.06060760       49       0.01871828       0.04994643       0.03110883
C        5.22936154       7.64711731       0.49319825       50       0.01807429      -0.11522866       0.15224054
C        5.12164067       7.11345651      17.38111158       51      -0.02494949       0.15927696      -0.03344485
C        5.14013360       8.35000495      15.22071356       52       0.01568304       0.04844233      -0.03727898
C        5.13223414       7.11028452      15.91370149       53       0.00174900       0.02639129      -0.05620456
C        5.13346411       5.94355355      15.11068779       54      -0.00856451      -0.02439069       0.04923639
C        5.14668099       6.02429171      13.72334219       55       0.02046210      -0.13966271       0.02568030
C        5.16521337       7.25808008      13.06132006       56      -0.02051220      -0.03464335      -0.01215160
C        5.15706294       8.42261390      13.83314491       57       0.01299164       0.04872319       0.00500298
C        9.28762289       7.37007374       8.75737718       58       0.05285040      -0.05931812       0.03454642
C        9.98374863       8.29213468       7.91221771       59      -0.01394032       0.04671539      -0.01833533
C        9.99787293       6.44817042       9.51442200       60      -0.05570088      -0.05692741       0.05378941
C        9.31001807       9.19187395       7.04650414       61       0.05966884       0.03909732      -0.03207399
C       10.01632341      10.03740281       6.20706649       62      -0.08200444      -0.02606897      -0.01559247
C        1.05176070       7.34001499       8.73985651       63      -0.02934386      -0.05426044       0.02752047
C        0.33634136       6.43346537       9.51020749       64       0.04760929       0.03140222      -0.03980541
C        0.36372541       8.27125617       7.89900475       65       0.04011588       0.02664448       0.00863869
C        1.05225894       9.13999336       7.01415911       66      -0.05804278       0.04688836      -0.06178604
C        0.36163488      10.00917855       6.18688950       67       0.06476424      -0.02791609       0.02127424
N        5.16886112      10.81956171       9.01949846       68      -0.01199418       0.02107745       0.01955270
N        5.17177559       3.92629030       8.79627548       69       0.02556063      -0.08734795      -0.00331989
O        5.17182589       6.36152178       6.85727715       70       0.01078991      -0.01152140       0.02495112
O        5.13411381       8.63129908       6.92567825       71       0.00057799      -0.04576853      -0.00196528
O        3.13793042       8.44018489       8.96615569       72      -0.03534644       0.04599826      -0.06678819
O        3.11274419       6.17473438       8.83003093       73      -0.04852071       0.02816862       0.02840130
O        5.20504667       8.49572719      11.03833115       74       0.00938712       0.00676611      -0.03699717
O        5.16186321       6.22701439      10.93079178       75       0.00436667      -0.02093548      -0.02167653
O        7.23205337       6.20959221       8.89701324       76       0.02285226       0.06711543       0.02598716
O        7.19715487       8.48035333       8.94556430       77      -0.00512268       0.00141191      -0.07075767
O        6.75913952      -0.77712891      10.11218181       78      -0.21281427      -0.01623335      -0.18624294
O        3.61913301      15.52060750       7.61816893       79       0.08737674       0.07810788       0.10267458
O        5.11015561       4.78078084      17.63670231       80      -0.01066417       0.36232477       0.03902587
O        5.24085145       9.97773539       0.24774457       81       0.01581273      -0.33200407      -0.23828505
82
Lattice="11.05892207 0.0 0.0 -0.5853454385538902 16.393429247045 0.0 -0.12081288080260527 -1.635568753966561 17.743425571924867" Properties=species:S:1:pos:R:3:spacegroup_kinds:I:1:forces:R:3 spacegroup="P 1" unit_cell=conventional occupancy="_JSON {\"0\": {\"Zn\": 1}, \"1\": {\"Zn\": 1}, \"2\": {\"H\": 1}, \"3\": {\"H\": 1}, \"4\": {\"H\": 1}, \"5\": {\"H\": 1}, \"6\": {\"H\": 1}, \"7\": {\"H\": 1}, \"8\": {\"H\": 1}, \"9\": {\"H\": 1}, \"10\": {\"H\": 1}, \"11\": {\"H\": 1}, \"12\": {\"H\": 1}, \"13\": {\"H\": 1}, \"14\": {\"H\": 1}, \"15\": {\"H\": 1}, \"16\": {\"H\": 1}, \"17\": {\"H\": 1}, \"18\": {\"H\": 1}, \"19\": {\"H\": 1}, \"20\": {\"H\": 1}, \"21\": {\"H\": 1}, \"22\": {\"H\": 1}, \"23\": {\"H\": 1}, \"24\": {\"H\": 1}, \"25\": {\"H\": 1}, \"26\": {\"H\": 1}, \"27\": {\"H\": 1}, \"28\": {\"C\": 1}, \"29\": {\"C\": 1}, \"30\": {\"C\": 1}, \"31\": {\"C\": 1}, \"32\": {\"C\": 1}, \"33\": {\"C\": 1}, \"34\": {\"C\": 1}, \"35\": {\"C\": 1}, \"36\": {\"C\": 1}, \"37\": {\"C\": 1}, \"38\": {\"C\": 1}, \"39\": {\"C\": 1}, \"40\": {\"C\": 1}, \"41\": {\"C\": 1}, \"42\": {\"C\": 1}, \"43\": {\"C\": 1}, \"44\": {\"C\": 1}, \"45\": {\"C\": 1}, \"46\": {\"C\": 1}, \"47\": {\"C\": 1}, \"48\": {\"C\": 1}, \"49\": {\"C\": 1}, \"50\": {\"C\": 1}, \"51\": {\"C\": 1}, \"52\": {\"C\": 1}, \"53\": {\"C\": 1}, \"54\": {\"C\": 1}, \"55\": {\"C\": 1}, \"56\": {\"C\": 1}, \"57\": {\"C\": 1}, \"58\": {\"C\": 1}, \"59\": {\"C\": 1}, \"60\": {\"C\": 1}, \"61\": {\"C\": 1}, \"62\": {\"C\": 1}, \"63\": {\"C\": 1}, \"64\": {\"C\": 1}, \"65\": {\"C\": 1}, \"66\": {\"C\": 1}, \"67\": {\"C\": 1}, \"68\": {\"N\": 1}, \"69\": {\"N\": 1}, \"70\": {\"O\": 1}, \"71\": {\"O\": 1}, \"72\": {\"O\": 1}, \"73\": {\"O\": 1}, \"74\": {\"O\": 1}, \"75\": {\"O\": 1}, \"76\": {\"O\": 1}, \"77\": {\"O\": 1}, \"78\": {\"O\": 1}, \"79\": {\"O\": 1}, \"80\": {\"O\": 1}, \"81\": {\"O\": 1}}" energy=-562.2577514648438 free_energy=-562.2577514648438 stress="0.00037451827665790915 -4.1958159272326156e-05 -3.677804897961323e-06 -4.1958159272326156e-05 0.00017665090854279697 -0.0003048401849810034 -3.677804897961323e-06 -0.0003048401849810034 0.0004751510568894446" pbc="T T T"
Zn       5.17456181       5.98115024       8.89465404        0      -0.00202970       0.01979366      -0.00928617
Zn       5.15861983       8.76936501       8.99025126        1      -0.00525752      -0.03076281       0.03375517
H        3.66529324      10.98630938       7.60543565        2       0.02549368       0.01218020       0.02138900
H        3.63031421      13.45657085       7.61333797        3      -0.01162186      -0.01332454      -0.01143092
H        6.81391281      13.25576825      10.58913849        4       0.00095743      -0.02001486       0.00125733
H        6.68007864      10.84003921      10.42707570        5      -0.03221749      -0.01654212      -0.02174482
H        3.57413467       1.51074142       7.14088197        6      -0.02255306       0.00935310      -0.02182603
H        6.72931729       1.26872309      10.13923463        7       0.00191768       0.03076124       0.00085289
H        6.67438573       3.73991831      10.20321189        8      -0.05823865      -0.03130085      -0.04340260
H        3.66836086       3.92485621       7.37584154        9       0.02283525       0.02320018       0.02591646
H        5.19832979       9.70423263       4.72251951       10      -0.01422162       0.01983920      -0.01037820
H        5.22714909       9.81343437       2.26750704       11      -0.00176730       0.02139691      -0.00492420
H        5.21610765       5.46606007       2.16977300       12      -0.00101811      -0.06971093      -0.02045066
H        5.18621742       5.42763331       4.58061268       13      -0.00453165      -0.01134522      -0.01315326
H        5.13561195       9.31094922      15.73372421       14      -0.00820947       0.10774826       0.00912915
H        5.12162611       4.96710191      15.57903905       15       0.00065123       0.00178753      -0.01379022
H        5.14149326       5.11532361      13.12297318       16       0.00553566      -0.05120230      -0.00273567
H        5.16101966       9.39086010      13.33189443       17       0.00248116      -0.02462396      -0.00576351
H        8.22051796       9.20940024       7.04903797       18       0.02313355      -0.00784327       0.06114211
H        9.47109306      10.71451051       5.54795353       19      -0.03365935       0.03292064      -0.03619732
H        2.14001868       9.10763953       6.98666969       20      -0.02516495      -0.00354765       0.05201269
H        0.91222529      10.66284117       5.50897991       21       0.00347269      -0.02029271       0.02167547
H        0.88654340       5.72169922      10.12423953       22      -0.01531199      -0.01667369      -0.00259735
H        9.44067771       5.74258307      10.13150200       23      -0.01434942      -0.02856269       0.00408315
H        6.63042851      14.88617759      10.56236246       24       0.02401826       0.13602480       0.02607567
H        3.71198034      -0.14448280       7.19597703       25       0.02714544      -0.15428838       0.00047099
H        5.21129681       5.73203219       0.58282834       26       0.00359669      -0.05727293      -0.19604996
H        5.13780463       9.02617630      17.29884416       27      -0.00523079       0.09178966       0.20900786
C        5.15769035       7.51374916       6.30939503       28       0.01434349      -0.05431983       0.02933395
C        2.54711549       7.31696284       8.84231593       29      -0.00469381       0.04485587      -0.04149097
C        5.17962321       7.33481788      11.56204898       30      -0.02185964       0.03671565       0.06741184
C        7.78925640       7.35611386       8.86584528       31       0.08130613      -0.06266320      -0.02659184
C        4.33996297      11.55294723       8.24843263       32      -0.01600343       0.05062503      -0.03869933
C        4.32874489      12.93955591       8.25888155       33      -0.06840336       0.04972947      -0.02142850
C        5.20879543      13.64742853       9.10911597       34       0.02588279       0.04789183       0.03308095
C        6.07195694      12.85185959       9.89920718       35       0.07306515      -0.02991045       0.06716150
C        6.01945012      11.46707016       9.82702139       36       0.00922763       0.02030179      -0.00953892
C        5.27474503      15.10473467       9.22455451       37      -0.06340760      -0.11621219      -0.12622347
C        5.09525335      -0.36265153       8.50989170       38       0.09946904       0.22488445       0.11298068
C        4.29885689       1.90645538       7.85249817       39      -0.02752913      -0.05268129      -0.01894488
C        5.15906974       1.09650376       8.63483064       40      -0.05873208      -0.01215699      -0.04243805
C        6.03088696       1.79480631       9.50074193       41       0.06485868      -0.02542856       0.06230488