84
Lattice="8.10804144 0.0 0.0 -2.6990644105178383 22.702173154002605 0.0 -2.699065566779064 -11.353069006459913 19.659559247159766" Properties=species:S:1:pos:R:3:spacegroup_kinds:I:1:forces:R:3 spacegroup="P 1" unit_cell=conventional occupancy="_JSON {\"0\": {\"Fe\": 1}, \"1\": {\"Fe\": 1}, \"2\": {\"Fe\": 1}, \"3\": {\"Fe\": 1}, \"4\": {\"Fe\": 1}, \"5\": {\"Fe\": 1}, \"6\": {\"H\": 1}, \"7\": {\"H\": 1}, \"8\": {\"H\": 1}, \"9\": {\"H\": 1}, \"10\": {\"H\": 1}, \"11\": {\"H\": 1}, \"12\": {\"H\": 1}, \"13\": {\"H\": 1}, \"14\": {\"H\": 1}, \"15\": {\"H\": 1}, \"16\": {\"H\": 1}, \"17\": {\"H\": 1}, \"18\": {\"C\": 1}, \"19\": {\"C\": 1}, \"20\": {\"C\": 1}, \"21\": {\"C\": 1}, \"22\": {\"C\": 1}, \"23\": {\"C\": 1}, \"24\": {\"C\": 1}, \"25\": {\"C\": 1}, \"26\": {\"C\": 1}, \"27\": {\"C\": 1}, \"28\": {\"C\": 1}, \"29\": {\"C\": 1}, \"30\": {\"C\": 1}, \"31\": {\"C\": 1}, \"32\": {\"C\": 1}, \"33\": {\"C\": 1}, \"34\": {\"C\": 1}, \"35\": {\"C\": 1}, \"36\": {\"C\": 1}, \"37\": {\"C\": 1}, \"38\": {\"C\": 1}, \"39\": {\"C\": 1}, \"40\": {\"C\": 1}, \"41\": {\"C\": 1}, \"42\": {\"C\": 1}, \"43\": {\"C\": 1}, \"44\": {\"C\": 1}, \"45\": {\"C\": 1}, \"46\": {\"C\": 1}, \"47\": {\"C\": 1}, \"48\": {\"C\": 1}, \"49\": {\"C\": 1}, \"50\": {\"C\": 1}, \"51\": {\"C\": 1}, \"52\": {\"C\": 1}, \"53\": {\"C\": 1}, \"54\": {\"N\": 1}, \"55\": {\"N\": 1}, \"56\": {\"N\": 1}, \"57\": {\"N\": 1}, \"58\": {\"N\": 1}, \"59\": {\"N\": 1}, \"60\": {\"N\": 1}, \"61\": {\"N\": 1}, \"62\": {\"N\": 1}, \"63\": {\"N\": 1}, \"64\": {\"N\": 1}, \"65\": {\"N\": 1}, \"66\": {\"N\": 1}, \"67\": {\"N\": 1}, \"68\": {\"N\": 1}, \"69\": {\"N\": 1}, \"70\": {\"N\": 1}, \"71\": {\"N\": 1}, \"72\": {\"Cl\": 1}, \"73\": {\"Cl\": 1}, \"74\": {\"Cl\": 1}, \"75\": {\"Cl\": 1}, \"76\": {\"Cl\": 1}, \"77\": {\"Cl\": 1}, \"78\": {\"O\": 1}, \"79\": {\"O\": 1}, \"80\": {\"O\": 1}, \"81\": {\"O\": 1}, \"82\": {\"O\": 1}, \"83\": {\"O\": 1}}" energy=-612.6057739257812 free_energy=-612.6057739257812 stress="8.866956341080368e-05 0.0001061117509379983 -0.001195156597532332 0.0001061117509379983 -0.001947413315065205 -0.0010991805465891957 -0.001195156597532332 -0.0010991805465891957 -0.0020346285309642553" pbc="T T T"
Fe      -1.31905266       0.93140925      13.63363950        0      -0.06910641       0.32272413       0.19513325
Fe       4.07438641       0.01225290      12.02527652        1      -0.03230272      -0.04624005      -0.31032437
Fe       1.35178339      -0.88434103      13.61470382        2       0.11372456      -0.75414300       0.44879222
Fe       4.05221481      10.45439848       6.03744418        3       0.12711249      -0.43884647      -0.24223317
Fe      -1.32311052      11.37783331       7.59153138        4      -0.22879519      -0.11105633       0.42383558
Fe       1.35939237      12.23398904       6.02548429        5      -0.04985977       0.43030959      -0.25937417
H       -0.96384567       4.17983960      11.93084900        6       1.01064324      -0.29631677      -0.24998845
H        3.67794522       3.13554688      10.06039605        7      -0.08778365      -0.03047971       0.03988562
H        1.74095960      -1.07113775      17.35665185        8       0.50394756       0.20549175      -0.30532211
H        4.46959547      -3.10708431      10.09583782        9      -0.47259188      -0.12756908      -0.23948283
H       -1.77365562       1.08033935      17.30753656       10       0.97568274       0.33599317       0.19088234
H        0.97457681      -4.16183063      11.91094207       11      -0.72480917      -0.18607014      -0.26986822
H        3.64516242       7.13855259       7.75585949       12       0.12176239       0.23990978      -0.10787293
H       -0.93814389       8.24784516       9.55169663       13      -0.49974692      -0.19621517       0.29584822
H        0.92373853      12.39638233       2.34496320       14       0.33303294       0.20202343      -0.01359077
H       -1.75372823      14.48813642       9.56142550       15      -0.29886001      -0.12856914      -0.15557808
H        4.43242971      10.30429622       2.31679209       16       0.51037180       0.15318236       0.00050641
H        1.72856182      15.56398284       7.73857227       17       1.59870172      -0.58002180       0.62075305
C        0.68954749       2.74969122      11.84466243       18       1.28777575      -2.14987040       1.02501893
C        1.98675606       2.41718332      11.34558101       19       1.33616805       1.00496900      -1.33069575
C        3.41004613      -0.31260327      16.09285446       20       1.21493340       0.45861399       0.90453863
C       -2.01592131      -2.41866818      11.35830033       21       0.83466178      -2.33381414      -0.54610401
C        4.73172743       0.28448566      16.08237221       22       0.00065824       0.04405272       1.16163385
C       -0.69032308      -2.76801865      11.88600061       23      -1.63603830       0.11510575      -0.87770724
C        1.97474065       8.62453242       7.79342015       24       1.67192781      -1.36936927       0.30555326
C        0.69987442       8.90959950       8.32614702       25      -0.46481159       0.06563080       0.00642285
C       -0.69763079      11.63841603       3.55928439       26      -0.22764280       0.28680804      -1.17373407
C        4.72838446      13.81061267       8.28803199       27      -0.88952273      -1.17686689      -0.61041307
C       -1.98223409      11.07024768       3.56318502       28      -1.36574936      -1.10468268      -1.93125975
C        3.42224645      14.07898651       7.77272239       29       0.24539444       1.45774353       1.01425242
C        0.06459887       3.91331071      11.56243613       30      -2.12547493       2.26371670      -0.80034709
C        2.67741490       3.30932426      10.45458184       31      -1.60947013       0.89426076       0.66704428
C        2.74991665      -0.62273703      17.28210855       32      -0.30794469       0.03318021       1.83877110
C        5.43993938      -3.35075221      10.49242360       33       0.35782310       0.94488657       0.43463248
C       -2.71413381       0.59184586      17.29609231       34      -1.45676088      -0.43427068      -0.78661424
C       -0.06216404      -3.96937796      11.55727419       35       0.57968855       0.13980880      -0.15807594
C        2.67292503       7.43003458       8.14206134       36      -0.81169403      -0.11733590       0.26642621
C        0.03792000       8.00283697       9.17779551       37       0.61573350       0.61971468      -0.37127125
C       -0.07027159      11.97404018       2.35231555       38       0.74562669       0.02500767      -0.44699645
C       -2.76171444      14.65900251       9.15451817       39       1.86657739       1.28569102       1.34555697
C        5.44919476      10.73568493       2.33194976       40      -0.75970054      -0.04765226       2.57612920
C        2.77295432      15.27520523       8.14193199       41      -2.94976139      -0.31975186      -1.84057450
C        0.68465320       4.77762130      10.65497443       42       0.37281987       0.07561684       0.52401078
C        1.97832958       4.52671880      10.16891278       43       1.74862063      -2.08507919      -0.31780365
C        3.39617313      -0.29847361      18.50358623       44       0.30342495      -0.00262141      -2.23087287
C        6.09404648      -4.52467517      10.13735548       45       0.84864527       1.47776806       1.47278976
C       -3.40797798       0.30159710      18.45316384       46      -0.10901588      -0.23406145       0.68579161
C       -0.73198883      -4.80030030      10.66845998       47       1.24527645      -0.45265621       0.69248146
C        2.02480333       6.53290436       9.00502354       48      -0.60875326       2.53594971      -1.13415313
C        0.72690711       6.85867261       9.50202067       49      -0.28499338      -1.06117809       0.51337230
C       -0.68505645      11.67423726       1.15991220       50      -1.21802711      -0.46871930       0.53817320
C       -3.38305285      15.83736949       9.47688992       51      -0.77830595       1.00630116       0.66903508
C        6.08984853      11.06290185       1.21096908       52       1.60193133       0.57271588      -2.79737329
C        3.38806395      16.12709647       8.97728085       53       2.24996853       1.19128764       1.43589544
N        0.35851524       1.71737950      12.70128709       54       0.10291035      -0.62206674      -0.21158546
N        2.38825016       1.21512584      11.85733580       55      -1.30872118      -0.13464531       0.62600541
N        3.07889235      -0.46252442      14.81528547       56      -0.65148264      -0.10533394      -2.24313021
N        5.77739693      -1.21643185      11.87688383       57      -1.24597967       0.20184118      -0.57540691
N       -3.02422233       0.47485357      14.78222717       58       0.34149581       0.05355769       0.23087138
N       -0.34475821      -1.72898960      12.65157439       59       0.92290759       1.17214847       1.04441094
N        2.37285434       9.66832246       6.97987587       60      -1.03894329      -0.52417105       0.71730578
N        0.33239958      10.14768088       7.80938540       61       0.22203678      -1.04843390       0.22892253
N       -0.34960629      11.82006741       4.83843194       62       0.22889768       0.02448103       1.38124299
N       -3.03086663      12.56518533       7.83610203       63      -0.46987697       0.15769060      -0.83595103
N        5.76272596      10.85322457       4.84207651       64      -0.52091759       0.20803857       0.34747204
N        3.07866214      13.02767648       7.00919287       65      -2.18523216       1.13553274      -0.64620662
N        1.34847794       0.80096709      12.65830426       66       0.43099645       1.48551285      -0.77203220
N        4.08702265       0.02337647      14.04513977       67      -0.86925441      -0.45594105       0.37769005
N       -1.33382607      -0.81884451      12.62479859       68       0.87216425      -0.24162778       0.38271344
N        1.33495375      10.49927586       7.02926335       69       0.31595594       1.39365530      -0.73629904
N       -1.37210926      11.34744386       5.58129556       70       0.85492438       0.16502844       0.46387327
N        4.03948534      12.20301625       7.02678589       71       2.46034431      -2.25926352       0.41721892
Cl       0.00393610      -0.02260882      15.41221356       72       0.01108883       0.00224107      -0.00436328
Cl       2.70648432      -1.98466545      11.93211622       73       0.01208147       0.03087233       0.02815715
Cl      -2.69942341       1.99152495      11.93394670       74       0.06255882       0.04443448      -0.00196644
Cl       2.71987692      11.34192540       4.25219121       75      -0.03542401       0.02599788      -0.04065223
Cl       0.01943343      13.33784488       7.69576150       76       0.03861365       0.06659004      -0.00890522
Cl       5.42281074       9.33153237       7.70257382       77       0.00570510       0.12333558      -0.05379203
O        0.06646844       5.94480033      10.33773946       78      -0.45788971       0.82979476      -0.25541607
O        2.64713384       5.39865262       9.30351763       79       0.12658738      -1.60516846       0.91915882
O        5.45013731      10.76249725      -0.00117197       80      -0.00862060       0.03744662       0.71231467
O        5.49133613      -5.36639252       9.31844272       81      -1.35607672      -1.58365750      -1.58603859
O       -2.74114743       0.59142312      19.63225654       82      -0.18923241       0.04447163       0.46150684
O       -2.73420936      16.73270116      10.36973980       83      -1.02672994      -0.75736809      -1.15265441
84
Lattice="8.10804144 0.0 0.0 -2.6990644105178383 22.702173154002605 0.0 -2.699065566779064 -11.353069006459913 19.659559247159766" Properties=species:S:1:pos:R:3:spacegroup_kinds:I:1:forces:R:3 spacegroup="P 1" unit_cell=conventional occupancy="_JSON {\"0\": {\"Fe\": 1}, \"1\": {\"Fe\": 1}, \"2\": {\"Fe\": 1}, \"3\": {\"Fe\": 1}, \"4\": {\"Fe\": 1}, \"5\": {\"Fe\": 1}, \"6\": {\"H\": 1}, \"7\": {\"H\": 1}, \"8\": {\"H\": 1}, \"9\": {\"H\": 1}, \"10\": {\"H\": 1}, \"11\": {\"H\": 1}, \"12\": {\"H\": 1}, \"13\": {\"H\": 1}, \"14\": {\"H\": 1}, \"15\": {\"H\": 1}, \"16\": {\"H\": 1}, \"17\": {\"H\": 1}, \"18\": {\"C\": 1}, \"19\": {\"C\": 1}, \"20\": {\"C\": 1}, \"21\": {\"C\": 1}, \"22\": {\"C\": 1}, \"23\": {\"C\": 1}, \"24\": {\"C\": 1}, \"25\": {\"C\": 1}, \"26\": {\"C\": 1}, \"27\": {\"C\": 1}, \"28\": {\"C\": 1}, \"29\": {\"C\": 1}, \"30\": {\"C\": 1}, \"31\": {\"C\": 1}, \"32\": {\"C\": 1}, \"33\": {\"C\": 1}, \"34\": {\"C\": 1}, \"35\": {\"C\": 1}, \"36\": {\"C\": 1}, \"37\": {\"C\": 1}, \"38\": {\"C\": 1}, \"39\": {\"C\": 1}, \"40\": {\"C\": 1}, \"41\": {\"C\": 1}, \"42\": {\"C\": 1}, \"43\": {\"C\": 1}, \"44\": {\"C\": 1}, \"45\": {\"C\": 1}, \"46\": {\"C\": 1}, \"47\": {\"C\": 1}, \"48\": {\"C\": 1}, \"49\": {\"C\": 1}, \"50\": {\"C\": 1}, \"51\": {\"C\": 1}, \"52\": {\"C\": 1}, \"53\": {\"C\": 1}, \"54\": {\"N\": 1}, \"55\": {\"N\": 1}, \"56\": {\"N\": 1}, \"57\": {\"N\": 1}, \"58\": {\"N\": 1}, \"59\": {\"N\": 1}, \"60\": {\"N\": 1}, \"61\": {\"N\": 1}, \"62\": {\"N\": 1}, \"63\": {\"N\": 1}, \"64\": {\"N\": 1}, \"65\": {\"N\": 1}, \"66\": {\"N\": 1}, \"67\": {\"N\": 1}, \"68\": {\"N\": 1}, \"69\": {\"N\": 1}, \"70\": {\"N\": 1}, \"71\": {\"N\": 1}, \"72\": {\"Cl\": 1}, \"73\": {\"Cl\": 1}, \"74\": {\"Cl\": 1}, \"75\": {\"Cl\": 1}, \"76\": {\"Cl\": 1}, \"77\": {\"Cl\": 1}, \"78\": {\"O\": 1}, \"79\": {\"O\": 1}, \"80\": {\"O\": 1}, \"81\": {\"O\": 1}, \"82\": {\"O\": 1}, \"83\": {\"O\": 1}}" energy=-611.5026245117188 free_energy=-611.5026245117188 stress="-2.7688070986187086e-05 -4.825443102163263e-05 -0.0005738158943131566 -4.825443102163263e-05 -0.0010001427726820111 -0.0002548517659306526 -0.0005738158943131566 -0.0002548517659306526 -0.002960599958896637" pbc="T T T"
Fe      -1.33709013       0.95093706      13.66070492        0       0.09018682       0.29019773       0.05853453
Fe       4.05371097       0.01837049      12.01103545        1       0.22696510      -0.15105432      -0.23332708
Fe       1.35689221      -0.85525807      13.61772727        2       0.10246766      -0.81051904       0.40490216
Fe       4.07407105      10.43001867       6.06399602        3      -0.04778858      -0.42052186      -0.42630222
Fe      -1.32517583      11.40397886       7.56462647        4      -0.21962839      -0.26606160       0.56183630
Fe       1.34807937      12.21167695       5.99950055        5       0.06959706       0.76938242      -0.10152352
H       -0.95093523       4.17043738      11.94722978        6       1.34891486      -0.29028046      -0.54502779
H        3.66243287       3.15765273      10.06320076        7       0.14569554      -0.25275233       0.08224317
H        1.71402520      -1.10019007      17.36708608        8       1.26915932       0.54326129      -0.42235842
H        4.49172892      -3.09890497      10.10532592        9      -0.87375885       0.07724389      -0.37512928
H       -1.75759435       1.10308438      17.28746798       10      -0.46253240      -0.49751148       0.40090096
H        0.96804314      -4.16581538      11.90546590       11      -0.70504618      -0.20910639      -0.31494680
H        3.62084066       7.14241376       7.76424050       12       2.06536150      -0.22714919      -0.96214211
H       -0.92025171       8.25473945       9.54923604       13      -1.80901480       0.21237507       0.73634958
H        0.95268986      12.41468081       2.35357971       14      -0.29346314      -0.17006762      -0.11570860
H       -1.76105945      14.50523183       9.53332884       15      -0.20288296      -0.32490024      -0.00250307
H        4.46097119      10.28067243       2.33947414       16      -0.67124951      -0.22723226       0.08433713
H        1.72217162      15.53442220       7.74741171       17       1.53793347      -0.47046226       0.68472326
C        0.66383812       2.75962480      11.83340336       18       2.79000330      -3.71711445       1.22375989
C        1.97405020       2.41977880      11.37001995       19       1.92708540       1.38865781      -2.03434277
C        3.39474729      -0.34187506      16.09760933       20       2.78118205       0.95117885      -0.31487122
C       -2.01189132      -2.43639130      11.38004978       21       0.28713411      -1.74483681      -0.92924559
C        4.74890808       0.25779511      16.10558318       22      -0.84068525      -0.03030041       0.28630528
C       -0.71539612      -2.74418720      11.87620105       23       0.52081501      -1.34914279      -0.38283381
C        1.94849761       8.64363980       7.81639627       24       3.92977238      -2.29169679      -0.45237458
C        0.72323533       8.93205974       8.35169235       25      -2.39143944       0.11529680       0.49321520
C       -0.67717756      11.61654622       3.55420715       26      -0.48792523       0.24473491      -1.41337538
C        4.71501510      13.81017600       8.30904007       27      -0.52714527      -2.72908831      -1.47883844
C       -1.96219600      11.04543966       3.55179292       28      -1.61777484      -0.78184068      -1.45856583
C        3.43386715      14.10296173       7.79528636       29      -0.05942991      -0.66648203      -0.27771249
C        0.08487897       3.90921250      11.53719331       30      -4.39314032       2.93805766       0.10467904
C        2.67179434       3.30647354      10.47561626       31      -1.18900287       0.59388679       0.75772476
C        2.74883370      -0.64127183      17.26203014       32      -1.18803167      -0.50831062       3.75707841
C        5.45791581      -3.33544165      10.48462999       33       0.39728820      -0.45519593       0.18993171
C       -2.72912208       0.56658843      17.32297553       34       1.16739821       1.04286981      -2.55036306
C       -0.06468382      -3.98362185      11.53942833       35       0.36876327       2.20856142       0.69326919
C        2.70050156       7.42144753       8.13610126       36      -3.96883368       0.82911980       1.35858750
C        0.01482637       8.01610663       9.16729759       37       2.67172360      -0.53440225      -0.33045590
C       -0.04461997      11.94858648       2.35484331       38       0.75234902       0.25074869      -1.05345309
C       -2.78285326      14.63657095       9.15993200       39       2.55031872       2.84026742       2.04863477
C        5.42162616      10.74675642       2.35794945       40       0.45690256       0.03212218       2.04354620
C        2.76268536      15.26410956       8.16112496       41      -2.52526903       0.10270000      -1.56041956
C        0.67194622       4.75034454      10.64588176       42       1.28445339       1.76220572      -0.43365026
C        2.00622116       4.50732805      10.19583952       43      -0.03898230      -0.82062680      -0.64230800
C        3.42211367      -0.32291529      18.50683870       44      -0.46677151       0.13856316      -2.55487704
C        6.07538865      -4.55080361      10.13218359       45       1.00733364       2.91361380       1.74547768
C       -3.41026706       0.32206500      18.45167211       46      -0.75113863      -1.11763525       2.08049154
C       -0.72011016      -4.77108253      10.64544737       47       0.42768097      -1.87862754       0.03873301
C        2.03307456       6.51547544       8.98677589       48      -1.48263133       3.12454128      -0.61470056
C        0.70651550       6.85755269       9.51948925       49       0.33984745      -0.17162472      -0.61083221
C       -0.70053324      11.64944841       1.16296222       50      -0.08447701      -0.02888106       0.91803575
C       -3.36742139      15.86282426       9.44975928       51      -0.75584501       0.24780709       1.05722654
C        6.06888229      11.04810194       1.23836294       52       2.25697851       0.93726361      -3.67165685
C        3.40442100      16.12219900       8.98875575       53       1.32213068       1.13096976       0.74459225
N        0.34826144       1.72898712      12.67687404       54      -0.17336950      -1.04817140       0.18998852
N        2.41541900       1.23336476      11.85899115       55      -2.35292935      -0.03758810       0.96233821
N        3.10367744      -0.48808964      14.80957645       56      -0.78787625       0.14072487      -2.45473528
N        5.76113718      -1.24491294      11.89467938       57      -1.38174570       1.03698730      -0.11088249
N       -3.00086529       0.49518315      14.80071904       58      -0.57098019      -0.45961282       0.37927732
N       -0.33759574      -1.71227776      12.64975705       59       0.16186140       1.13741302       0.84053952
N        2.34488798       9.65454654       6.96706084       60      -1.30762661       0.23894566       0.66714966
N        0.30680695      10.14792793       7.82578580       61       0.99819779      -0.44054711      -0.41412520
N       -0.37343409      11.82656181       4.83309975       62       1.52804160       0.21302819       1.15665841
N       -3.00597110      12.54222076       7.83925145       63      -1.66351998       0.78699303      -0.95463061
N        5.76089751      10.86059486       4.82252258       64      -0.15730079      -0.08792993       0.97744727
N        3.10804450      13.03573972       6.98422782       65      -2.73528337       1.79121780      -0.31150386
N        1.34105660       0.81612426      12.64423076       66       0.58088946       1.20471287      -0.56668311
N        4.09886018       0.03588206      14.03778902       67      -0.42772263      -0.41449165       1.29121256
N       -1.36307751      -0.81220400      12.65377147       68       1.03150105      -0.85754907      -0.06784016
N        1.30793805      10.52439273       7.00542472       69       0.19374222      -0.06992626       0.10509069
N       -1.34399517      11.32929940       5.56560159       70      -0.51533765       0.02905018       0.74318779
N        4.02529640      12.17921512       7.00152032       71       3.34690857      -1.21315384       1.34058619
Cl       0.01261251      -0.02254126      15.42243402       72       0.00580481       0.03572754      -0.03259990
Cl       2.68742342      -1.96294581      11.91854772       73       0.01449407       0.00755457       0.01220654
Cl      -2.68805185       1.98694334      11.93174087       74       0.04631392       0.03654292      -0.01253781
Cl       2.73583184      11.36847662       4.27939185       75       0.00369828      -0.04836003      -0.13166705
Cl      -0.00330117      13.33278341       7.72446441       76       0.17470253       0.07992772      -0.08296956
Cl       5.40006852       9.35918122       7.72289456       77       0.07998990       0.06626081      -0.03112933
O        0.05420433       5.96879522      10.35146508       78      -0.00158522      -0.56476176       0.15103495
O        2.63408207       5.38911339       9.32060973       79       0.81531554      -1.82630956       0.72452080
O        5.46345363      10.76893404       0.00765134       80      -0.40031576      -0.24114351       0.45260817
O        5.47340988      -5.38338597       9.30607621       81      -0.97706741      -1.31127441      -1.13397419
O       -2.72355308       0.57280951      19.62245298       82      -0.83278275      -0.03905419       1.36859024
O       -2.74035934      16.73355950      10.37551146       83      -0.73756903      -0.68741447      -1.34843099
84
Lattice="8.10804144 0.0 0.0 -2.6990644105178383 22.702173154002605 0.0 -2.699065566779064 -11.353069006459913 19.659559247159766" Properties=species:S:1:pos:R:3:spacegroup_kinds:I:1:forces:R:3 spacegroup="P 1" unit_cell=conventional occupancy="_JSON {\"0\": {\"Fe\": 1}, \"1\": {\"Fe\": 1}, \"2\": {\"Fe\": 1}, \"3\": {\"Fe\": 1}, \"4\": {\"Fe\": 1}, \"5\": {\"Fe\": 1}, \"6\": {\"H\": 1}, \"7\": {\"H\": 1}, \"8\": {\"H\": 1}, \"9\": {\"H\": 1}, \"10\": {\"H\": 1}, \"11\": {\"H\": 1}, \"12\": {\"H\": 1}, \"13\": {\"H\": 1}, \"14\": {\"H\": 1}, \"15\": {\"H\": 1}, \"16\": {\"H\": 1}, \"17\": {\"H\": 1}, \"18\": {\"C\": 1}, \"19\": {\"C\": 1}, \"20\": {\"C\": 1}, \"21\": {\"C\": 1}, \"22\": {\"C\": 1}, \"23\": {\"C\": 1}, \"24\": {\"C\": 1}, \"25\": {\"C\": 1}, \"26\": {\"C\": 1}, \"27\": {\"C\": 1}, \"28\": {\"C\": 1}, \"29\": {\"C\": 1}, \"30\": {\"C\": 1}, \"31\": {\"C\": 1}, \"32\": {\"C\": 1}, \"33\": {\"C\": 1}, \"34\": {\"C\": 1}, \"35\": {\"C\": 1}, \"36\": {\"C\": 1}, \"37\": {\"C\": 1}, \"38\": {\"C\": 1}, \"39\": {\"C\": 1}, \"40\": {\"C\": 1}, \"41\": {\"C\": 1}, \"42\": {\"C\": 1}, \"43\": {\"C\": 1}, \"44\": {\"C\": 1}, \"45\": {\"C\": 1}, \"46\": {\"C\": 1}, \"47\": {\"C\": 1}, \"48\": {\"C\": 1}, \"49\": {\"C\": 1}, \"50\": {\"C\": 1}, \"51\": {\"C\": 1}, \"52\": {\"C\": 1}, \"53\": {\"C\": 1}, \"54\": {\"N\": 1}, \"55\": {\"N\": 1}, \"56\": {\"N\": 1}, \"57\": {\"N\": 1}, \"58\": {\"N\": 1}, \"59\": {\"N\": 1}, \"60\": {\"N\": 1}, \"61\": {\"N\": 1}, \"62\": {\"N\": 1}, \"63\": {\"N\": 1}, \"64\": {\"N\": 1}, \"65\": {\"N\": 1}, \"66\": {\"N\": 1}, \"67\": {\"N\": 1}, \"68\": {\"N\": 1}, \"69\": {\"N\": 1}, \"70\": {\"N\": 1}, \"71\": {\"N\": 1}, \"72\": {\"Cl\": 1}, \"73\": {\"Cl\": 1}, \"74\": {\"Cl\": 1}, \"75\": {\"Cl\": 1}, \"76\": {\"Cl\": 1}, \"77\": {\"Cl\": 1}, \"78\": {\"O\": 1}, \"79\": {\"O\": 1}, \"80\": {\"O\": 1}, \"81\": {\"O\": 1}, \"82\": {\"O\": 1}, \"83\": {\"O\": 1}}" energy=-610.583984375 free_energy=-610.583984375 stress="-0.0009509696974419057 -0.0014699421590194106 -0.0011868239380419254 -0.0014699421590194106 0.0002836383646354079 -0.0013533084420487285 -0.0011868239380419254 -0.0013533084420487285 -0.0035441690124571323" pbc="T T T"
Fe      -1.35303185       0.96714952      13.66843538        0       0.16165341       0.17397660      -0.02200124
Fe       4.04598503       0.00688384      12.00804139        1       0.24570438      -0.08287356      -0.13524461
Fe       1.34135845      -0.87559250      13.63556274        2       0.21068880      -0.67265260       0.34196639
Fe       4.10057337      10.45258571       6.04149344        3      -0.31371233      -0.63672185      -0.32560551
Fe      -1.30713282      11.38432587       7.54793258        4      -0.25367689      -0.29001883       0.78920007
Fe       1.36436618      12.22215287       5.97626363        5      -0.02627483       0.88450342      -0.04205035
H       -0.93585461       4.14876163      11.95018455        6       1.25490355      -0.36338586      -0.55422986
H        3.68312388       3.15608420      10.09011070        7       0.51228797      -0.32954055      -0.17378491
H        1.71792505      -1.07093833      17.34904419        8       1.55966711       0.65491688      -0.27984795
H        4.46926437      -3.12225195      10.13166246        9      -0.25339219       0.24196658      -0.05765653
H       -1.77911724       1.08350961      17.27740524       10      -0.12565972      -0.37146419       0.41075060
H        0.97870399      -4.18665172      11.90314930       11      -1.65808213       0.03898570      -0.63509518
H        3.60559765       7.15115539       7.76687433       12       2.20300150      -0.15442440      -1.06605768
H       -0.93193810       8.27159549       9.54113790       13      -1.10722208       0.00495466       0.44445533
H        0.97809896      12.38639576       2.33496757       14      -1.20057404      -0.55367595      -0.26437166
H       -1.75773778      14.48931867       9.53204775       15       0.67447442      -0.34866455       0.38757259
H        4.47808339      10.25398662       2.34732831       16      -1.35187936      -0.58245170       0.07677590
H        1.72167771      15.53722394       7.77592433       17       1.62369013      -0.50041753       0.55816567
C        0.69165697       2.73596951      11.81991495       18       0.95319855      -2.35901284       1.18182886
C        1.95501037       2.42550652      11.34600559       19       3.98681641      -0.41960275      -1.72680330
C        3.39106668      -0.33277891      16.11920570       20       3.12564969       0.91534054      -2.74521613
C       -1.98321289      -2.46015592      11.38502309       21      -1.23454666       0.33936018      -0.46046123
C        4.75184116       0.23343933      16.09506617       22      -1.21641123      -0.06142434       1.23580360
C       -0.72567887      -2.74177987      11.87895346       23       2.07976627      -1.41329420       0.19505629
C        1.92210984       8.61502655       7.84374540       24       4.55661631      -0.33381140      -2.16968298
C        0.69408952       8.93873486       8.32922291       25      -1.22596383      -0.41122723       0.40157831
C       -0.66359049      11.62024297       3.52801537       26      -1.83786106      -0.24920076       1.20435834
C        4.73429141      13.79238412       8.31247975       27      -0.92965835      -2.38005781      -1.22057140
C       -1.98985627      11.06013260       3.56829981       28      -0.14107758      -0.41210029      -1.86697495
C        3.42289949      14.12066161       7.82163436       29       1.29912901      -2.63038969      -1.06466293
C        0.09151550       3.88777077      11.52835162       30      -4.18145466       2.69139671       0.35405621
C        2.68520681       3.29346325      10.45028976       31      -2.45609069       1.17541087       1.53731966
C        2.77382627      -0.61829776      17.27080907       32      -2.85139656      -1.47490788       3.77176237
C        5.46939827      -3.31584507      10.49704625       33      -0.37494808      -2.14707327      -0.87932503
C       -2.73659144       0.54231156      17.32289818       34       1.62957501       1.40931273      -3.13759089
C       -0.09071369      -3.99600980      11.52116108       35       3.06492281       3.85331821       3.18351078