72
Lattice="7.76334313 0.0 0.0 0.3433156377514156 8.623465750156026 0.0 2.98466640071215 0.3989272078203975 10.656493132757568" Properties=species:S:1:pos:R:3:spacegroup_kinds:I:1:forces:R:3 spacegroup="P 1" unit_cell=conventional occupancy="_JSON {\"0\": {\"Cu\": 1}, \"1\": {\"Cu\": 1}, \"2\": {\"H\": 1}, \"3\": {\"H\": 1}, \"4\": {\"H\": 1}, \"5\": {\"H\": 1}, \"6\": {\"H\": 1}, \"7\": {\"H\": 1}, \"8\": {\"H\": 1}, \"9\": {\"H\": 1}, \"10\": {\"H\": 1}, \"11\": {\"H\": 1}, \"12\": {\"H\": 1}, \"13\": {\"H\": 1}, \"14\": {\"H\": 1}, \"15\": {\"H\": 1}, \"16\": {\"H\": 1}, \"17\": {\"H\": 1}, \"18\": {\"H\": 1}, \"19\": {\"H\": 1}, \"20\": {\"H\": 1}, \"21\": {\"H\": 1}, \"22\": {\"H\": 1}, \"23\": {\"H\": 1}, \"24\": {\"H\": 1}, \"25\": {\"H\": 1}, \"26\": {\"H\": 1}, \"27\": {\"H\": 1}, \"28\": {\"H\": 1}, \"29\": {\"H\": 1}, \"30\": {\"H\": 1}, \"31\": {\"H\": 1}, \"32\": {\"C\": 1}, \"33\": {\"C\": 1}, \"34\": {\"C\": 1}, \"35\": {\"C\": 1}, \"36\": {\"C\": 1}, \"37\": {\"C\": 1}, \"38\": {\"C\": 1}, \"39\": {\"C\": 1}, \"40\": {\"C\": 1}, \"41\": {\"C\": 1}, \"42\": {\"C\": 1}, \"43\": {\"C\": 1}, \"44\": {\"C\": 1}, \"45\": {\"C\": 1}, \"46\": {\"C\": 1}, \"47\": {\"C\": 1}, \"48\": {\"C\": 1}, \"49\": {\"C\": 1}, \"50\": {\"C\": 1}, \"51\": {\"C\": 1}, \"52\": {\"C\": 1}, \"53\": {\"C\": 1}, \"54\": {\"C\": 1}, \"55\": {\"C\": 1}, \"56\": {\"C\": 1}, \"57\": {\"C\": 1}, \"58\": {\"C\": 1}, \"59\": {\"C\": 1}, \"60\": {\"N\": 1}, \"61\": {\"N\": 1}, \"62\": {\"N\": 1}, \"63\": {\"N\": 1}, \"64\": {\"N\": 1}, \"65\": {\"N\": 1}, \"66\": {\"Cl\": 1}, \"67\": {\"Cl\": 1}, \"68\": {\"O\": 1}, \"69\": {\"O\": 1}, \"70\": {\"O\": 1}, \"71\": {\"O\": 1}}" energy=-458.3233947753906 free_energy=-458.3233947753906 stress="-0.0059996373020112514 -0.003456685459241271 0.0005930257611908019 -0.003456685459241271 -0.005750126671046019 -0.0018457379192113876 0.0005930257611908019 -0.0018457379192113876 -0.0005871333414688706" pbc="T T T"
Cu       6.05140172       8.15933745       3.59982274        0       0.23349908       0.02367319       0.06409626
Cu       5.04158298       0.85730724       7.05887481        1      -0.19393185       0.09405416      -0.11031776
H        7.97746049       5.54142513       2.55574529        2      -0.29200077       0.30652428      -0.23666397
H        3.12103200       3.47497473       8.10548034        3      -0.09044607       0.00887506      -0.02133486
H        3.35401845       8.66385216       2.96425950        4       0.02536344       0.06924307      -0.06952351
H        7.73736769       0.36312703       7.69522864        5      -0.03307219      -0.05102108       0.05151961
H        1.25443403       7.38828693       2.59239164        6      -0.05067876       0.07289039      -0.04942843
H        9.84454104       1.62887788       8.06834690        7      -0.33011973       0.16846648      -0.16062944
H        3.29905812       3.90340844       4.19008255        8      -0.02547324      -0.00271754       0.01736111
H        7.79346755       5.12221633       6.46766748        9       0.02062509      -0.10276651       0.02208450
H        5.27464092       5.32069136       4.47482658       10      -0.06164192      -0.11557879      -0.05335088
H        5.81997850       3.70138753       6.18427826       11       0.04869227       0.08771946       0.06336281
H        8.45576600       0.52767657       4.53411421       12       0.03597963       0.10478227      -0.05173108
H        2.64162121       8.48528539       6.11901190       13      -0.11881697       0.00997552      -0.04633003
H        1.90855514       2.63723559       4.40551761       14       0.32802859       0.08280984       0.22957033
H        9.18277784       6.37624105       6.25371704       15      -0.23312648      -0.02498611      -0.19246079
H        6.40347906       4.19164106       2.00252079       16      -0.01039001      -0.04006043       0.07620576
H        4.69145379       4.83057777       8.65521575       17      -0.06885591       0.19453618      -0.13747223
H        5.33885030       1.94935837       2.21361172       18      -0.05153181      -0.14349283      -0.00094649
H        5.75070924       7.07414130       8.44380562       19       0.01611798       0.14416632      -0.02809367
H        9.53454305       7.77975741       9.63611120       20       0.00718759      -0.01247147      -0.12486854
H        1.55807465       1.24440409       1.02078546       21       0.10742202       0.02804046       0.05468208
H        7.82022304       8.11470202       9.99856121       22       0.20704085      -0.13963398       0.05594853
H        3.26751014       0.91622682       0.65305413       23       0.10587960      -0.10024013       0.04756381
H        8.15583100       5.86790944       8.91099211       24      -0.05625574      -0.08889983       0.14227220
H        2.93415918       3.15723638       1.74566173       25       0.04668438       0.03583989      -0.23906782
H        9.26010375       5.38803663      10.20445315       26       0.04687040      -0.06796136      -0.01956663
H        1.83076634       3.63729472       0.45279196       27       0.02640949      -0.03830386       0.01107502
H        6.28261264       6.04647534      10.57251625       28      -0.15159467       0.11610331       0.00870841
H        4.81365528       2.97007045       0.08045119       29      -0.01322910       0.01505112      -0.03333949
H        4.39228218       5.19258105       1.21838393       30      -0.12645110      -0.00215157      -0.18043277
H        6.70260904       3.83497668       9.44548743       31       0.06916694      -0.03562621      -0.08756702
C        3.28426659       7.61053422       3.21442334       32       0.39914900      -0.15475553       0.21463989
C        7.80590764       1.41589771       7.43995273       33      -0.23549742       0.02123898      -0.12231641
C        2.12891893       6.90215117       3.01443016       34      -0.08739214      -0.32721907      -0.02692294
C        8.96133345       2.12447049       7.63548294       35       0.45186341      -0.29217380       0.35538989
C        2.06203726       5.52185407       3.33701935       36       0.51833338       0.40025592       0.10793026
C        9.02304378       3.49518603       7.32006620       37      -0.22505857       0.08536506      -0.15219808
C        3.22699649       4.95106124       3.89367001       38      -0.40960985      -0.32906029      -0.10506281
C        7.86474145       4.07223063       6.76740374       39       0.17251693       0.30832094       0.00479278
C        4.35452307       5.73643700       4.05912016       40       0.37799746       0.30424055       0.16630383
C        6.73702088       3.27942684       6.60242492       41      -0.31395209       0.40602660      -0.34053406
C        8.04879910       1.36136199       3.95929338       42       0.33721715       0.15394217       0.15944822
C        3.04896817       7.65739482       6.69286696       43      -0.52383238      -0.18207756      -0.15922570
C        8.72692796       2.57503876       3.89110450       44      -0.28128275      -0.22219512      -0.17075253
C        2.36625333       6.44587953       6.76980763       45       0.21671671       0.21281613       0.02220920
C        8.14053726       3.63644119       3.18188745       46      -0.15228808      -0.08567250       0.09316082
C        2.95291628       5.38085875       7.47029984       47       0.05771077       0.21664706       0.02317441
C        6.88584418       3.40009730       2.57391115       48       0.09252671      -0.14471072      -0.08274040
C        4.20121730       5.62870866       8.08881026       49       0.03438690      -0.08674632       0.05868714
C        6.29582815       2.16067060       2.68731768       50      -0.15156120       0.12201571      -0.09414714
C        4.79395533       6.86535363       7.96547657       51       0.19505957      -0.07306284       0.18650521
C        6.09375448       7.31316291       1.04857601       52      -0.53707641       0.55519801       0.00504422
C        5.00004124       1.70829143       9.61274106       53       0.25201905      -0.37573150      -0.36207658
C        8.68019602       7.46423385      10.25585207       54      -0.28232753       0.08740863       0.00348529
C        2.41791538       1.55978059       0.39978458       55      -0.21360172      -0.06164175      -0.00694993
C        8.36164072       5.98634999       9.99078342       56       0.18021062       0.34288529      -0.37879661
C        2.72853472       3.02923337       0.66291098       57      -0.11090830       0.08237597       0.50267905
C        4.19404180       5.05589570       0.13788854       58      -0.00892671      -0.22176367       0.40810770
C        6.89772214       3.96761730      10.51792097       59       0.17920482       0.07923579      -0.09796540
N        4.41234380       7.04287286       3.72698495       60      -0.68879771      -0.01754901      -0.07207817
N        6.68299943       1.98625712       6.93126014       61       0.43270367      -0.50820684       0.14018530
N        8.62738465       4.92018991       3.04196128       62       0.01954168      -0.18152630       0.19272003
N        2.45751756       4.10360579       7.61498701       63       0.43855059      -0.26601323       0.10474542
N        6.85886523       1.14608123       3.37702311       64      -0.14863843       0.14021352      -0.08526655
N        4.23293860       7.88388823       7.27416914       65       0.28979194      -0.38768306       0.20180009
Cl       7.03212778       7.36373139       5.48640908       66       0.03954891      -0.15806076      -0.06588144
Cl       4.06024737       1.65971760       5.16865230       67      -0.02561272       0.15089449       0.08585181
O        5.54983300       8.32913672       1.63420005       68       0.17090967      -0.17375255      -0.10187595
O        5.53760292       0.69094762       9.02289084       69      -0.15080908       0.21876395       0.16729997
O        6.89086569       6.53768427       1.62161757       70       0.41722250      -0.45805946      -0.09211659
O        4.19559358       2.48479885       9.03531910       71      -0.14336067       0.22297838       0.31142086
72
Lattice="7.76334313 0.0 0.0 0.3433156377514156 8.623465750156026 0.0 2.98466640071215 0.3989272078203975 10.656493132757568" Properties=species:S:1:pos:R:3:spacegroup_kinds:I:1:forces:R:3 spacegroup="P 1" unit_cell=conventional occupancy="_JSON {\"0\": {\"Cu\": 1}, \"1\": {\"Cu\": 1}, \"2\": {\"H\": 1}, \"3\": {\"H\": 1}, \"4\": {\"H\": 1}, \"5\": {\"H\": 1}, \"6\": {\"H\": 1}, \"7\": {\"H\": 1}, \"8\": {\"H\": 1}, \"9\": {\"H\": 1}, \"10\": {\"H\": 1}, \"11\": {\"H\": 1}, \"12\": {\"H\": 1}, \"13\": {\"H\": 1}, \"14\": {\"H\": 1}, \"15\": {\"H\": 1}, \"16\": {\"H\": 1}, \"17\": {\"H\": 1}, \"18\": {\"H\": 1}, \"19\": {\"H\": 1}, \"20\": {\"H\": 1}, \"21\": {\"H\": 1}, \"22\": {\"H\": 1}, \"23\": {\"H\": 1}, \"24\": {\"H\": 1}, \"25\": {\"H\": 1}, \"26\": {\"H\": 1}, \"27\": {\"H\": 1}, \"28\": {\"H\": 1}, \"29\": {\"H\": 1}, \"30\": {\"H\": 1}, \"31\": {\"H\": 1}, \"32\": {\"C\": 1}, \"33\": {\"C\": 1}, \"34\": {\"C\": 1}, \"35\": {\"C\": 1}, \"36\": {\"C\": 1}, \"37\": {\"C\": 1}, \"38\": {\"C\": 1}, \"39\": {\"C\": 1}, \"40\": {\"C\": 1}, \"41\": {\"C\": 1}, \"42\": {\"C\": 1}, \"43\": {\"C\": 1}, \"44\": {\"C\": 1}, \"45\": {\"C\": 1}, \"46\": {\"C\": 1}, \"47\": {\"C\": 1}, \"48\": {\"C\": 1}, \"49\": {\"C\": 1}, \"50\": {\"C\": 1}, \"51\": {\"C\": 1}, \"52\": {\"C\": 1}, \"53\": {\"C\": 1}, \"54\": {\"C\": 1}, \"55\": {\"C\": 1}, \"56\": {\"C\": 1}, \"57\": {\"C\": 1}, \"58\": {\"C\": 1}, \"59\": {\"C\": 1}, \"60\": {\"N\": 1}, \"61\": {\"N\": 1}, \"62\": {\"N\": 1}, \"63\": {\"N\": 1}, \"64\": {\"N\": 1}, \"65\": {\"N\": 1}, \"66\": {\"Cl\": 1}, \"67\": {\"Cl\": 1}, \"68\": {\"O\": 1}, \"69\": {\"O\": 1}, \"70\": {\"O\": 1}, \"71\": {\"O\": 1}}" energy=-458.29888916015625 free_energy=-458.29888916015625 stress="-0.0059997015632689 -0.0022476082667708397 -3.344018114148639e-05 -0.0022476082667708397 -0.0058842129074037075 -0.001420331303961575 -3.344018114148639e-05 -0.001420331303961575 -0.0009174934239126742" pbc="T T T"
Cu       6.05596643       8.16380967       3.60478757        0       0.12733555      -0.05630219       0.00531255
Cu       5.04306409       0.86075337       7.06246233        1      -0.27286243       0.01687092      -0.10435335
H        7.98234426       5.53735347       2.55883250        2      -0.48002014       0.45423928      -0.37233189
H        3.12066307       3.47230127       8.10610076        3      -0.13059002       0.07796033      -0.05697423
H        3.35751827       8.66636972       2.96820466        4      -0.00858630      -0.08681513      -0.06342961
H        7.73418826       0.36340431       7.69694791        5      -0.02454533      -0.03543536       0.04159712
H        1.24974111       7.39153038       2.59223946        6       0.13275515      -0.03984876       0.01549112
H        9.84702218       1.63341074       8.06422375        7      -0.36763701       0.11772217      -0.14145435
H        3.29972447       3.90175075       4.18743174        8      -0.07747782       0.16951621      -0.03469043
H        7.78969064       5.11995405       6.47058954        9       0.02088612       0.00514057      -0.01471657
H        5.27326514       5.32301007       4.47629159       10       0.07044460      -0.19162360      -0.01266452
H        5.81844649       3.70380459       6.18776174       11       0.02187777       0.07973698       0.04355472
H        8.45838277       0.52598244       4.53758588       12       0.03102963       0.08258557      -0.03624237
H        2.64264812       8.48073284       6.12367308       13      -0.24510726       0.28674111      -0.23273787
H        1.90493908       2.63859662       4.40482758       14       0.31384447       0.07080663       0.21804386
H        9.18387746       6.38051890       6.25352862       15      -0.32654959      -0.08390035      -0.22802924
H        6.40620532       4.18736696       2.00615632       16      -0.17663266       0.25045660      -0.12235062
H        4.68867582       4.82949698       8.65184018       17      -0.00556128       0.08485174      -0.05220604
H        5.34075239       1.94632506       2.21837777       18      -0.30704522      -0.19682917      -0.13048023
H        5.75038273       7.07031730       8.44415176       19      -0.01008474       0.15737279      -0.06699589
H        9.53906184       7.77566617       9.63306706       20      -0.06614450       0.00917064      -0.09493047
H        1.55485430       1.24029582       1.02167257       21       0.25270361       0.10425152      -0.00278702
H        7.82262788       8.11709923       9.99919243       22       0.11252412      -0.05525317      -0.00099597
H        3.27128690       0.91901047       0.64954963       23       0.09963185      -0.11138739       0.06575209
H        8.15933705       5.86846189       8.90624115       24      -0.05972435      -0.08891925       0.14690670
H        2.93172576       3.16206347       1.74084339       25       0.06680240       0.02411495      -0.19630547
H        9.26325720       5.39197850      10.20834892       26      -0.05584336       0.00144901      -0.07024998
H        1.82773221       3.63612262       0.45208201       27       0.13015841      -0.07650446      -0.00520660
H        6.28588901       6.04308063      10.57477630       28      -0.30378252       0.22644436      -0.04187509
H        4.81536767       2.96535027       0.07628953       29      -0.04063126       0.08860289       0.00074222
H        4.39052000       5.18778813       1.21808116       30      -0.09324055       0.05064000      -0.21095926
H        6.70746001       3.83299004       9.44782931       31       0.06743700      -0.00667436      -0.07510892
C        3.28525346       7.60622730       3.20957472       32       0.41531608       0.13496396       0.22085460
C        7.80304591       1.41577539       7.43660361       33      -0.21567689      -0.12271619      -0.01359751
C        2.13156987       6.89903019       3.00950444       34      -0.37933901      -0.04336637      -0.15801051
C        8.95765961       2.12259101       7.63630437       35       0.59577358      -0.15755212       0.27537328
C        2.06384394       5.52631846       3.33591205       36       0.30445942       0.19089484       0.03691033
C        9.02725675       3.49272402       7.31552053       37      -0.52306062       0.10770398      -0.15707149
C        3.22333088       4.95556741       3.89049771       38      -0.09084439      -0.64436692       0.04274813
C        7.86260094       4.07268842       6.76605609       39       0.27053142       0.09201568       0.05528986
C        4.35884035       5.73240599       4.05538925       40       0.05603543       0.51697105       0.09837270
C        6.73574066       3.27903389       6.59981522       41      -0.28800994       0.26947767      -0.23307273
C        8.05171814       1.35841905       3.96294687       42      -0.00004578       0.13808963      -0.02908230
C        3.04608813       7.66046161       6.69094001       43      -0.38051850      -0.72582376       0.16570167
C        8.72330607       2.57113404       3.88924699       44      -0.04907864      -0.18965535      -0.07820903
C        2.36416690       6.44137052       6.77079647       45       0.29688212       0.66235703      -0.08677272
C        8.14545899       3.63196378       3.17792657       46      -0.45764157       0.10758972      -0.03887737
C        2.94924883       5.38506364       7.47233041       47       0.16005945      -0.11877204       0.14354952
C        6.88363792       3.40468062       2.57158659       48       0.29309148      -0.77396894       0.19789763
C        4.19920976       5.62604615       8.09232534       49      -0.03699828       0.16630754      -0.11062543
C        6.29116874       2.15699154       2.68557478       50       0.29207176       0.45611209       0.06496048
C        4.79350069       6.86462400       7.96148349       51       0.23280329      -0.33107162       0.39927906
C        6.09351256       7.31252508       1.04422122       52      -0.55176789       0.66233283       0.11555624
C        4.99835409       1.70843120       9.61755837       53       0.21258077      -0.26858187      -0.49198750
C        8.67825794       7.46713794      10.25159158       54      -0.06471017      -0.00204621       0.02491450
C        2.41981251       1.56161206       0.40066875       55      -0.31492251      -0.14634857       0.06020397
C        8.36186491       5.99075549       9.98605170       56       0.25514489       0.21669215      -0.27907139
C        2.73239974       3.03015427       0.65827511       57      -0.31472421       0.17436580       0.61227906
C        4.19557068       5.05920001       0.13508005       58       0.12867728      -0.34602141       0.51711553
C        6.90099162       3.97176731      10.52105421       59       0.22573192      -0.07260838      -0.30428264
N        4.40765401       7.04291717       3.72785753       60      -0.41385835      -0.13070734      -0.04417846
N        6.67878338       1.98178094       6.93419396       61       0.45706981      -0.19756055      -0.00598951
N        8.62814232       4.92006023       3.04025792       62       0.28530902      -0.38782585       0.37339395
N        2.45535018       4.10280173       7.61524395       63       0.57709271      -0.24108365       0.14164761
N        6.85568449       1.14469935       3.37731861       64       0.07220830       0.18160132       0.00053013
N        4.22989917       7.87960077       7.27887351       65       0.20979497      -0.11640449      -0.01029209
Cl       7.02965254       7.36331094       5.48945978       66       0.04666610      -0.16252270      -0.06215659
Cl       4.06255684       1.65873316       5.16775733       67      -0.03053134       0.15033513       0.09364679
O        5.55122049       8.33034296       1.62986536       68       0.14460358      -0.16635561      -0.09876094
O        5.53791836       0.69434213       9.02527154       69      -0.16653940       0.18306506       0.16946369
O        6.88988810       6.54254079       1.62466817       70       0.43882716      -0.53082901      -0.14356366
O        4.19426066       2.48805621       9.03865840       71      -0.08782737       0.13613205       0.36658937
72
Lattice="7.76334313 0.0 0.0 0.3433156377514156 8.623465750156026 0.0 2.98466640071215 0.3989272078203975 10.656493132757568" Properties=species:S:1:pos:R:3:spacegroup_kinds:I:1:forces:R:3 spacegroup="P 1" unit_cell=conventional occupancy="_JSON {\"0\": {\"Cu\": 1}, \"1\": {\"Cu\": 1}, \"2\": {\"H\": 1}, \"3\": {\"H\": 1}, \"4\": {\"H\": 1}, \"5\": {\"H\": 1}, \"6\": {\"H\": 1}, \"7\": {\"H\": 1}, \"8\": {\"H\": 1}, \"9\": {\"H\": 1}, \"10\": {\"H\": 1}, \"11\": {\"H\": 1}, \"12\": {\"H\": 1}, \"13\": {\"H\": 1}, \"14\": {\"H\": 1}, \"15\": {\"H\": 1}, \"16\": {\"H\": 1}, \"17\": {\"H\": 1}, \"18\": {\"H\": 1}, \"19\": {\"H\": 1}, \"20\": {\"H\": 1}, \"21\": {\"H\": 1}, \"22\": {\"H\": 1}, \"23\": {\"H\": 1}, \"24\": {\"H\": 1}, \"25\": {\"H\": 1}, \"26\": {\"H\": 1}, \"27\": {\"H\": 1}, \"28\": {\"H\": 1}, \"29\": {\"H\": 1}, \"30\": {\"H\": 1}, \"31\": {\"H\": 1}, \"32\": {\"C\": 1}, \"33\": {\"C\": 1}, \"34\": {\"C\": 1}, \"35\": {\"C\": 1}, \"36\": {\"C\": 1}, \"37\": {\"C\": 1}, \"38\": {\"C\": 1}, \"39\": {\"C\": 1}, \"40\": {\"C\": 1}, \"41\": {\"C\": 1}, \"42\": {\"C\": 1}, \"43\": {\"C\": 1}, \"44\": {\"C\": 1}, \"45\": {\"C\": 1}, \"46\": {\"C\": 1}, \"47\": {\"C\": 1}, \"48\": {\"C\": 1}, \"49\": {\"C\": 1}, \"50\": {\"C\": 1}, \"51\": {\"C\": 1}, \"52\": {\"C\": 1}, \"53\": {\"C\": 1}, \"54\": {\"C\": 1}, \"55\": {\"C\": 1}, \"56\": {\"C\": 1}, \"57\": {\"C\": 1}, \"58\": {\"C\": 1}, \"59\": {\"C\": 1}, \"60\": {\"N\": 1}, \"61\": {\"N\": 1}, \"62\": {\"N\": 1}, \"63\": {\"N\": 1}, \"64\": {\"N\": 1}, \"65\": {\"N\": 1}, \"66\": {\"Cl\": 1}, \"67\": {\"Cl\": 1}, \"68\": {\"O\": 1}, \"69\": {\"O\": 1}, \"70\": {\"O\": 1}, \"71\": {\"O\": 1}}" energy=-458.2838134765625 free_energy=-458.2838134765625 stress="-0.006333609111607075 -0.0018490188522264361 -9.405379387317225e-05 -0.0018490188522264361 -0.005780108273029327 -0.000973922957200557 -9.405379387317225e-05 -0.000973922957200557 -0.0008461542893201113" pbc="T T T"
Cu       6.05991445       8.16713864       3.60500281        0       0.08743776      -0.12753826       0.02961089
Cu       5.04046078       0.86568498       7.06347955        1      -0.28031248      -0.02055137      -0.09794456
H        7.98037077       5.53488701       2.56184245        2      -0.38127208       0.44995907      -0.32733387
H        3.12250562       3.47574452       8.10642938        3      -0.17335877       0.10174325      -0.09314574
H        3.35711778       8.66511807       2.97024578        4      -0.00228078       0.00909407      -0.08883249
H        7.73719811       0.36292620       7.69662391        5      -0.04347291      -0.06290999       0.03832431
H        1.25254800       7.39494843       2.59632551        6      -0.01248737      -0.00012484      -0.03323463
H        9.84385273       1.63582270       8.05950173        7      -0.22037856       0.02479337      -0.05232804
H        3.29517931       3.90061708       4.18337386        8      -0.03742725       0.05441345       0.02007382
H        7.79174213       5.12076729       6.46796955        9       0.04211775      -0.00129029      -0.00095017
H        5.27164909       5.32603244       4.47319996       10       0.14804715      -0.22192958       0.02881483
H        5.82199626       3.70176256       6.18864366       11      -0.21897906       0.20354347      -0.05099622
H        8.45754406       0.52329928       4.53747838       12       0.01560536       0.21774596      -0.11156611
H        2.63942676       8.48035360       6.12580844       13      -0.26630059       0.37282839      -0.28144240
H        1.90097778       2.63454269       4.40423112       14       0.29795992       0.09595175       0.20364380
H        9.18476118       6.37976286       6.25613772       15      -0.24759573      -0.06271283      -0.19406003
H        6.40898295       4.18483228       2.00585752       16      -0.24046570       0.26864827      -0.16080064
H        4.69070584       4.83274330       8.65345957       17      -0.01883767       0.09645121      -0.06480341
H        5.34135170       1.94359468       2.21920572       18      -0.38140592      -0.22049133      -0.15776214
H        5.75368525       7.07411937       8.43934558       19       0.00873839       0.16222937      -0.05907641
H        9.53488380       7.77724355       9.63070953       20       0.05941582       0.04460319      -0.17877117
H        1.55538163       1.24420216       1.02323093       21       0.27532816       0.10676655      -0.01313004
H        7.82350123       8.11851845      10.00042961       22       0.09120913      -0.03793778      -0.00619731
H        3.26700070       0.91611875       0.65240117       23       0.18063006      -0.12494687       0.08178502
H        8.15596741       5.86531965       8.90555485       24      -0.02906539      -0.07894953       0.22658920
H        2.92802702       3.15745125       1.73903698       25       0.08037578       0.04253420      -0.20799586
H        9.26212807       5.39067393      10.20944757       26      -0.02084222      -0.01392627      -0.06747353
H        1.83001234       3.63295229       0.45033674       27       0.02593144      -0.03731605      -0.02962160
H        6.28610272       6.04290603      10.57033089       28      -0.27026844       0.20755380      -0.02424910
H        4.81986440       2.96145690       0.07888221       29      -0.23841932       0.18588075      -0.07367873
H        4.38585701       5.18550276       1.21559128       30      -0.06801791       0.06367332      -0.11620528
H        6.70290494       3.83281185       9.44311735       31       0.09392247      -0.01830875      -0.01187978
C        3.28792010       7.60745353       3.21087877       32       0.09690034      -0.01707393       0.17112759
C        7.80613809       1.41429353       7.43648710       33      -0.47624642      -0.03762186      -0.04173419
C        2.12661546       6.89931416       3.01280341       34       0.09946887      -0.04349090      -0.05027127
C        8.95571071       2.12073484       7.63999889       35       0.62077814       0.05539803       0.13503301
C        2.06605017       5.52310946       3.33519260       36       0.29586869       0.39797962       0.06340582
C        9.02864814       3.49097975       7.31084885       37      -0.48316759       0.16725743      -0.04636604
C        3.22255429       4.95202002       3.89334687       38       0.04125611      -0.36934897      -0.02718182
C        7.86582499       4.07448413       6.76818023       39       0.04571578       0.01079947      -0.04992663
C        4.35846915       5.73459907       4.05584638       40      -0.06325677       0.47536498       0.05497883
C        6.73102930       3.28197851       6.60090253       41       0.18370527       0.16608727      -0.05447061
C        8.05425123       1.36072079       3.95875766       42      -0.15591174      -0.18767592       0.10708182
C        3.04446631       7.66318062       6.69073750       43      -0.30795568      -0.81235141       0.25088385
C        8.71856810       2.57238907       3.88762126       44       0.12653475      -0.12960072      -0.07311645
C        2.36815071       6.44561935       6.77280936       45       0.06351320       0.50348902      -0.15194795
C        8.14505896       3.63298833       3.17369893       46      -0.48459670       0.06337011       0.03874800
C        2.94872546       5.38506769       7.47460972       47       0.25534207       0.08000317       0.10102895
C        6.88000714       3.40079991       2.57186359       48       0.45244569      -0.69458777       0.21027490
C        4.19840409       5.62805592       8.09330468       49       0.07410497       0.22370598      -0.08421577
C        6.28956475       2.15229537       2.68633991       50       0.32728362       0.47857112       0.11386763
C        4.79664162       6.86890302       7.95854874       51       0.11623973      -0.59090024       0.46580431
C        6.09637135       7.31279407       1.04281204       52      -0.53464413       0.74099600       0.33707216
C        4.99561650       1.70606491       9.61907656       53       0.35099769      -0.18115488      -0.42619193
C        8.68044067       7.47067352      10.24938032       54      -0.18798986      -0.18966514       0.16447967
C        2.42298176       1.56433746       0.40276189       55      -0.55421054      -0.38418746      -0.03308916
C        8.36158065       5.98843572       9.98758623       56       0.26335013       0.34077364      -0.39673880
C        2.72955751       3.02564830       0.65562976       57      -0.14426672       0.31348550       0.70340472
C        4.19621071       5.05869905       0.13494997       58      -0.02850333      -0.44272074       0.41871586
C        6.89696005       3.96738859      10.51852191       59       0.47643524      -0.03803195      -0.26735091
N        4.40955929       7.04660312       3.72583565       60      -0.40495545      -0.29041782       0.01501936
N        6.67647397       1.98561676       6.93862551       61       0.56317014      -0.26029229      -0.01754946
N        8.63221770       4.92150087       3.04477021       62      -0.05483592      -0.52163517       0.22135419
N        2.45705726       4.10605693       7.61185428       63       0.51631963      -0.49565980       0.18925679
N        6.85268229       1.14076953       3.38148789       64       0.19325906       0.32901376      -0.06469405
N        4.22802397       7.87706670       7.27976955       65       0.28417423       0.16253601      -0.09683897
Cl       7.03117303       7.36470524       5.49283617       66       0.04125792      -0.15974319      -0.07055400