78
Lattice="10.01793988 0.0 0.0 4.1312092851181 9.115006891436725 0.0 0.8183945745327417 3.175158750579773 10.56260309653222" Properties=species:S:1:pos:R:3:spacegroup_kinds:I:1:forces:R:3 spacegroup="P 1" unit_cell=conventional occupancy="_JSON {\"0\": {\"Cd\": 1}, \"1\": {\"Cd\": 1}, \"2\": {\"H\": 1}, \"3\": {\"H\": 1}, \"4\": {\"H\": 1}, \"5\": {\"H\": 1}, \"6\": {\"H\": 1}, \"7\": {\"H\": 1}, \"8\": {\"H\": 1}, \"9\": {\"H\": 1}, \"10\": {\"H\": 1}, \"11\": {\"H\": 1}, \"12\": {\"H\": 1}, \"13\": {\"H\": 1}, \"14\": {\"H\": 1}, \"15\": {\"H\": 1}, \"16\": {\"H\": 1}, \"17\": {\"H\": 1}, \"18\": {\"H\": 1}, \"19\": {\"H\": 1}, \"20\": {\"H\": 1}, \"21\": {\"H\": 1}, \"22\": {\"H\": 1}, \"23\": {\"H\": 1}, \"24\": {\"H\": 1}, \"25\": {\"H\": 1}, \"26\": {\"H\": 1}, \"27\": {\"H\": 1}, \"28\": {\"H\": 1}, \"29\": {\"H\": 1}, \"30\": {\"C\": 1}, \"31\": {\"C\": 1}, \"32\": {\"C\": 1}, \"33\": {\"C\": 1}, \"34\": {\"C\": 1}, \"35\": {\"C\": 1}, \"36\": {\"C\": 1}, \"37\": {\"C\": 1}, \"38\": {\"C\": 1}, \"39\": {\"C\": 1}, \"40\": {\"C\": 1}, \"41\": {\"C\": 1}, \"42\": {\"C\": 1}, \"43\": {\"C\": 1}, \"44\": {\"C\": 1}, \"45\": {\"C\": 1}, \"46\": {\"C\": 1}, \"47\": {\"C\": 1}, \"48\": {\"C\": 1}, \"49\": {\"C\": 1}, \"50\": {\"C\": 1}, \"51\": {\"C\": 1}, \"52\": {\"C\": 1}, \"53\": {\"C\": 1}, \"54\": {\"C\": 1}, \"55\": {\"C\": 1}, \"56\": {\"C\": 1}, \"57\": {\"C\": 1}, \"58\": {\"N\": 1}, \"59\": {\"N\": 1}, \"60\": {\"N\": 1}, \"61\": {\"N\": 1}, \"62\": {\"O\": 1}, \"63\": {\"O\": 1}, \"64\": {\"O\": 1}, \"65\": {\"O\": 1}, \"66\": {\"O\": 1}, \"67\": {\"O\": 1}, \"68\": {\"O\": 1}, \"69\": {\"O\": 1}, \"70\": {\"O\": 1}, \"71\": {\"O\": 1}, \"72\": {\"O\": 1}, \"73\": {\"O\": 1}, \"74\": {\"O\": 1}, \"75\": {\"O\": 1}, \"76\": {\"O\": 1}, \"77\": {\"O\": 1}}" energy=-505.1067199707031 free_energy=-505.1067199707031 stress="-0.008326728828251362 -0.0005147829069755971 -0.00020159051928203553 -0.0005147829069755971 -0.000782085582613945 0.0018041221192106605 -0.00020159051928203553 0.0018041221192106605 -0.002524940762668848" pbc="T T T"
Cd       2.44112967       1.77631674       0.29217822        0      -0.08180588      -0.20134299       0.27186361
Cd      12.52578429      10.51365623      10.26858415        1       0.07292795       0.20812447      -0.28142715
H        2.96373765       4.39049028       1.53075720        2      -0.04340212       0.04952105      -0.07321210
H       12.00313038       7.89915026       9.02969603        3       0.05474986      -0.02183540       0.06317769
H        3.61172983       3.16375571       2.29378732        4       0.03268946      -0.11471848       0.00267526
H       11.35386733       9.12627132       8.26919589        5      -0.03879995       0.12493679      -0.00948237
H        8.15918637      11.63402020       9.59598782        6      -0.07268217       0.09643609       0.02861826
H        6.80931503       0.65577847       0.96556740        7      -0.02180863      -0.04216557      -0.04310277
H        6.58562861      11.61576723       9.72770330        8       0.04263799       0.10908207       0.00350854
H        8.37945841       0.67580899       0.83356661        9      -0.01014208      -0.09668028      -0.01376045
H        3.99321076       5.61414885       7.13369797       10      -0.01976514      -0.02306537       0.06976081
H       10.97449098       6.67680077       3.42702661       11      -0.02251789       0.01913038      -0.10226248
H        3.40764685       4.45201670       5.90734208       12      -0.00490830       0.13314497      -0.04290863
H       11.55940396       7.83698342       4.65341646       13      -0.00948232      -0.08250389       0.06116600
H        3.01810759       5.38974558       3.55627402       14       0.02692353      -0.00935014      -0.00211565
H       11.94841370       6.90247010       7.00433560       15      -0.03074916      -0.01596535      -0.01285851
H        3.44405904       7.07940117       3.24533000       16       0.09775269       0.13948995      -0.00828896
H       11.52089353       5.21084603       7.31687837       17      -0.06516734      -0.08264004      -0.04803091
H       13.80182769       9.24119331       4.45610973       18      -0.04490782      -0.02504086      -0.00507238
H        1.16373618       3.04979163       6.10399720       19       0.04754418       0.03031597       0.00143638
H       10.46843534       1.66980745       2.66122010       20       0.00543407       0.00804859       0.08103933
H        4.49660734      10.62264184       7.89969765       21       0.03676230      -0.05574448      -0.06695726
H        8.07235984       8.62550925       2.13568665       22       0.05940316      -0.00180017      -0.02461173
H        6.89276577       3.66720185       8.42472359       23      -0.01297584      -0.01684633      -0.00478732
H        7.44403631       6.99029816       3.93440784       24       0.03610410       0.06771770       0.04115431
H        7.52241865       5.30020885       6.62655478       25      -0.04357877      -0.05589631      -0.04776374
H        6.80173592       7.73184239       8.19839557       26      -0.00709492       0.08877383      -0.13665554
H        8.16275455       4.55934505       2.36130027       27       0.02691153      -0.10094041       0.14380731
H        9.52694493       7.88540116       8.11488528       28       0.04978722       0.11592983      -0.14034781
H        5.43801142       4.40483488       2.44742804       29       0.01026040      -0.05686779       0.07258438
C        3.35946118       5.50308175       6.24847498       30      -0.01796461       0.07197911       0.19288677
C       11.60470823       6.78756009       4.31280749       31       0.12591618      -0.10707957      -0.20675647
C        3.02880828       6.40229382       3.98951272       32      -0.12382393       0.04292481      -0.05076528
C       11.93749386       5.88911310       6.57057161       33       0.04849353      -0.08076107       0.13852084
C        5.10133940       6.94653351       5.31917516       34       0.34968102       0.40036663       0.03611119
C        9.86498330       5.34365069       5.23880435       35      -0.36300120      -0.44219083       0.08968559
C        5.52388406       7.94714339       4.28243622       36       0.02599270       0.07224259      -0.04866722
C        9.44180676       4.34365339       6.27805809       37       0.00950387      -0.04378806      -0.01412868
C        4.73746838       9.05981811       3.96152052       38      -0.06302865      -0.00613038      -0.05463748
C       10.22807680       3.23179636       6.59816597       39       0.08398962      -0.05116243       0.09608530
C        5.17822467       9.92782781       2.96952614       40      -0.00730786       0.03763118       0.02550395
C        9.78869482       2.36327382       7.59115906       41      -0.04896836       0.02339554      -0.06474467
C        7.12758762       8.71210100       2.67188125       42      -0.02942482       0.06065110      -0.03723893
C        7.83827149       3.57680390       7.88695097       43      -0.02502942       0.00472328       0.04391347
C        6.77160096       7.80679254       3.66771451       44      -0.01452448       0.01902109      -0.03284362
C        8.19511102       4.48399950       6.89165109       45      -0.02787419      -0.05096671       0.08121040
C        7.19615267       6.22675343       9.74577649       46      -0.16524753      -0.37029633       0.27863178
C        7.76907522       6.06484835       0.81349428       47       0.21005082       0.29980850      -0.24306437
C        7.51083530       7.18909640       8.80501031       48      -0.20223665      -0.05257185       0.03501374
C        7.45491811       5.10114868       1.75361662       49       0.22490132       0.06795257      -0.03842542
C        8.93338211       7.25343560       8.75782256       50       0.13756990      -0.06500705       0.11756990
C        6.03349300       5.03682972       1.80086405       51      -0.22750288       0.01266508      -0.03671870
C        9.40433483       6.32914324       9.67338284       52       0.06629053      -0.07773891       0.05022945
C        5.56196683       5.96252855       0.88783523       53      -0.03324986       0.07946625      -0.10154116
C        5.94742915       5.63043708      10.25139437       54       0.07256013       0.12949672      -0.23050568
C        9.01788256       6.65770070       0.30800474       55      -0.04669183      -0.09102337       0.25646627
C       10.70911578       5.83983791      10.11079784       56       0.11500213       0.04331733      -0.10098227
C        4.25640916       6.44879507       0.44946343       57       0.02716678       0.06551378       0.06133243
N        6.32655282       9.72840199       2.29875100       58      -0.05012789      -0.04579356      -0.05073443
N        8.63858208       2.56135835       8.26021013       59       0.07733199       0.03154474       0.06381139
N        3.86343849       6.37815817       5.19097814       60      -0.07458073      -0.39420259      -0.32908472
N       11.10200258       5.91231355       5.36950531       61       0.08401501       0.40810007       0.30432630
O        4.87003435       6.02760413       9.68813549       62       0.03891873       0.01978488      -0.04755786
O       10.09556550       6.26357184       0.87176605       63      -0.01626638      -0.05397853       0.06787416
O        5.19026970       1.60104611       0.63813788       64       0.13759625      -0.00025085      -0.02685899
O        9.77538400      10.68782122       9.92310750       65      -0.14896464       0.03750241      -0.03393811
O        8.34610484       5.71605688      10.27508101       66      -0.09916971       0.14206928       0.10629502
O        6.62265686       6.57525435       0.28398892       67      -0.03296636      -0.14463344      -0.08756191
O       11.77550046       6.42124405       9.69115261       68      -0.11396058       0.00148872      -0.05542231
O        3.19218819       5.87128018       0.86909540       69      -0.02127603      -0.10979098       0.12193067
O        9.92974993       1.64993157       0.32252930       70       0.03100839       0.05672759      -0.10096273
O        5.03631802      10.63906783      10.23782835       71      -0.02506202      -0.03530684       0.07399732
O        5.86628479       6.68894387       6.26164055       72       0.04948340      -0.17501563      -0.02340144
O        9.09784778       5.60133746       4.29968072       73      -0.06350368       0.19615172      -0.04527865
O        2.75980055       3.51737629       1.98934628       74       0.01166365      -0.07103985       0.06258416
O       12.20684057       8.77416986       8.57189179       75      -0.01835890       0.02914611      -0.04521558
O        3.21800945       3.07897900       9.45878620       76       0.00498471       0.02339602      -0.05687033
O       11.74820417       9.21199585       1.10097005       77       0.05789174      -0.09558628       0.08278151
78
Lattice="10.01793988 0.0 0.0 4.1312092851181 9.115006891436725 0.0 0.8183945745327417 3.175158750579773 10.56260309653222" Properties=species:S:1:pos:R:3:spacegroup_kinds:I:1:forces:R:3 spacegroup="P 1" unit_cell=conventional occupancy="_JSON {\"0\": {\"Cd\": 1}, \"1\": {\"Cd\": 1}, \"2\": {\"H\": 1}, \"3\": {\"H\": 1}, \"4\": {\"H\": 1}, \"5\": {\"H\": 1}, \"6\": {\"H\": 1}, \"7\": {\"H\": 1}, \"8\": {\"H\": 1}, \"9\": {\"H\": 1}, \"10\": {\"H\": 1}, \"11\": {\"H\": 1}, \"12\": {\"H\": 1}, \"13\": {\"H\": 1}, \"14\": {\"H\": 1}, \"15\": {\"H\": 1}, \"16\": {\"H\": 1}, \"17\": {\"H\": 1}, \"18\": {\"H\": 1}, \"19\": {\"H\": 1}, \"20\": {\"H\": 1}, \"21\": {\"H\": 1}, \"22\": {\"H\": 1}, \"23\": {\"H\": 1}, \"24\": {\"H\": 1}, \"25\": {\"H\": 1}, \"26\": {\"H\": 1}, \"27\": {\"H\": 1}, \"28\": {\"H\": 1}, \"29\": {\"H\": 1}, \"30\": {\"C\": 1}, \"31\": {\"C\": 1}, \"32\": {\"C\": 1}, \"33\": {\"C\": 1}, \"34\": {\"C\": 1}, \"35\": {\"C\": 1}, \"36\": {\"C\": 1}, \"37\": {\"C\": 1}, \"38\": {\"C\": 1}, \"39\": {\"C\": 1}, \"40\": {\"C\": 1}, \"41\": {\"C\": 1}, \"42\": {\"C\": 1}, \"43\": {\"C\": 1}, \"44\": {\"C\": 1}, \"45\": {\"C\": 1}, \"46\": {\"C\": 1}, \"47\": {\"C\": 1}, \"48\": {\"C\": 1}, \"49\": {\"C\": 1}, \"50\": {\"C\": 1}, \"51\": {\"C\": 1}, \"52\": {\"C\": 1}, \"53\": {\"C\": 1}, \"54\": {\"C\": 1}, \"55\": {\"C\": 1}, \"56\": {\"C\": 1}, \"57\": {\"C\": 1}, \"58\": {\"N\": 1}, \"59\": {\"N\": 1}, \"60\": {\"N\": 1}, \"61\": {\"N\": 1}, \"62\": {\"O\": 1}, \"63\": {\"O\": 1}, \"64\": {\"O\": 1}, \"65\": {\"O\": 1}, \"66\": {\"O\": 1}, \"67\": {\"O\": 1}, \"68\": {\"O\": 1}, \"69\": {\"O\": 1}, \"70\": {\"O\": 1}, \"71\": {\"O\": 1}, \"72\": {\"O\": 1}, \"73\": {\"O\": 1}, \"74\": {\"O\": 1}, \"75\": {\"O\": 1}, \"76\": {\"O\": 1}, \"77\": {\"O\": 1}}" energy=-505.13055419921875 free_energy=-505.13055419921875 stress="-0.007487304043024778 -0.0007053249282762408 0.00012534330016933382 -0.0007053249282762408 -0.00046872178791090846 0.001645302982069552 0.00012534330016933382 0.001645302982069552 -0.002207976533100009" pbc="T T T"
Cd       2.43974404       1.77420360       0.29460247        0      -0.05567442      -0.17739807       0.24345583
Cd      12.52721662      10.51646084      10.26558873        1       0.04979575       0.18903670      -0.26502678
H        2.96129107       4.39101266       1.52784202        2      -0.03155618      -0.00107008      -0.03976778
H       12.00406677       7.89880196       9.03018756        3       0.04528165       0.02991691       0.02747821
H        3.61009828       3.16138068       2.29230231        4       0.05047671      -0.10448868      -0.00074553
H       11.35179318       9.12873410       8.27010616        5      -0.03092020       0.10681989       0.00353093
H        8.15678614      11.63566728       9.59633367        6      -0.04420066       0.09098142       0.02497880
H        6.80651210       0.65550179       0.96275382        7       0.04464564      -0.07989597      -0.03256968
H        6.58646509      11.61758080       9.72759773        8      -0.00823029       0.08806168       0.01034196
H        8.37772691       0.67323906       0.83119883        9       0.02709019      -0.05631918      -0.02478093
H        3.99181215       5.61372205       7.13337364       10       0.03533285      -0.00276707       0.13104430
H       10.97255678       6.67767022       3.42429582       11      -0.01106701       0.00374150      -0.07911648
H        3.40859402       4.45384603       5.90685105       12      -0.01074114       0.10877773      -0.02479923
H       11.55826198       7.83590046       4.65306788       13      -0.00114148      -0.12535590       0.02737577
H        3.01736099       5.39105535       3.55520639       14       0.02231731      -0.02115168      -0.03069766
H       11.94699924       6.90273004       7.00298307       15      -0.02340990      -0.04874704       0.00593325
H        3.44513937       7.08060312       3.24549957       16       0.08579508       0.14667374      -0.02028166
H       11.51815892       5.20887853       7.31552427       17      -0.06470186      -0.09018433      -0.02688797
H       13.79953887       9.24132435       4.45479233       18      -0.01878840      -0.01860956      -0.02420251
H        1.16346335       3.05042945       6.10260701       19       0.02852538       0.03012642       0.01355927
H       10.46721294       1.67211656       2.66238488       20       0.02571334      -0.00958037       0.07507602
H        4.49676927      10.62113737       7.89824050       21      -0.00797699       0.00476103      -0.09015977
H        8.07255762       8.62781284       2.13383525       22       0.01288237       0.00247427      -0.00734303
H        6.89167009       3.66734394       8.42394907       23      -0.03418009      -0.01690524       0.00779781
H        7.44492266       6.99155652       3.93450925       24       0.00887701       0.09429492       0.02851523
H        7.51961569       5.29943437       6.62435241       25      -0.00976917      -0.09365849      -0.03066204
H        6.80032830       7.73332947       8.19566945       26       0.01532701       0.05880423      -0.10584535
H        8.16198837       4.55882869       2.36228666       27       0.04131162      -0.09851995       0.14149386
H        9.52659074       7.88665195       8.11229407       28       0.01659957       0.07089938      -0.09501877
H        5.43716781       4.40366380       2.44719095       29       0.03834216      -0.01563390       0.03347839
C        3.35916017       5.50365052       6.25063564       30      -0.06464872       0.05266088       0.04384616
C       11.60487470       6.78514459       4.30985356       31       0.03542439       0.01175421      -0.13949269
C        3.02612235       6.40366838       3.98728387       32      -0.04220743      -0.02377740      -0.00957346
C       11.93755802       5.88718776       6.57192148       33       0.02188841       0.00842041       0.08474874
C        5.10424441       6.94943361       5.31826680       34       0.08673801       0.23731717       0.03620850
C        9.86218464       5.34068149       5.23909895       35      -0.27365601      -0.23796897      -0.02995813
C        5.52266706       7.94951317       4.28165168       36       0.08400112       0.06191956      -0.08148581
C        9.44042135       4.34423609       6.27826173       37       0.02124722      -0.12084489       0.00459993
C        4.73574429       9.06163382       3.95873918       38      -0.09052561      -0.05124627       0.01838817
C       10.22755382       3.23138150       6.59801534       39       0.08985151       0.02355902       0.02718823
C        5.17775020       9.92887800       2.96841359       40      -0.08352129       0.08408797       0.01945397
C        9.78744578       2.36365386       7.58894496       41      -0.00792748      -0.07762811       0.01697540
C        7.12567312       8.71392072       2.66957712       42       0.05284348      -0.03549543      -0.01814573
C        7.83627738       3.57746087       7.88606998       43       0.02377746      -0.06642086       0.08884524
C        6.77056053       7.80724739       3.66562611       44      -0.01542646       0.03793791      -0.01379903
C        8.19359466       4.48301575       6.89207546       45      -0.05763343       0.04539579       0.00593381
C        7.19364696       6.22446102       9.74680466       46      -0.02573742      -0.18512137       0.11236189
C        7.77082455       6.06683493       0.81163153       47       0.05456491       0.17406666      -0.14170562
C        7.50792566       7.18798458       8.80393717       48      -0.09750485      -0.06787491       0.05770375
C        7.45718386       5.10170084       1.75250750       49       0.04880613       0.11204040      -0.07653417
C        8.93392197       7.25260387       8.75753870       50       0.04105502      -0.03746954       0.08351699
C        6.03207777       5.03779753       1.79911233       51      -0.14222431       0.00974540      -0.02699157
C        9.40541873       6.32851683       9.67366828       52      -0.06646356      -0.00317584      -0.01882790
C        5.56003881       5.96506101       0.88524448       53       0.07909304      -0.05430597       0.00544508
C        5.94826846       5.63333012      10.24860756       54      -0.03914833      -0.02514735      -0.08407988
C        9.01654073       6.65667070       0.31074816       55       0.00778148       0.12015326       0.00553136
C       10.70999756       5.84136754      10.10790460       56      -0.03000170      -0.03608441      -0.02692076
C        4.25638192       6.44963195       0.44925323       57      -0.06381959       0.05920536       0.05068778
N        6.32439526       9.72771525       2.29762866       58      -0.03532375       0.01904474      -0.09397613
N        8.63845166       2.56218295       8.25962332       59       0.04264824       0.05219646       0.04674518
N        3.86057136       6.37516851       5.18817304       60       0.17014956      -0.23558211      -0.24839592
N       11.10183887       5.91516680       5.37067823       61      -0.05736065       0.25930655       0.26788110
O        4.87014298       6.02967526       9.68570728       62       0.03973943       0.00069244      -0.02160928
O       10.09542123       6.26391140       0.87093840       63       0.00656226      -0.06111318       0.08669892
O        5.19202215       1.60228238       0.63803225       64       0.10605156       0.07437855      -0.11402917
O        9.77258834      10.68941849       9.92160975       65      -0.12579054      -0.09261680       0.12476161
O        8.34403057       5.71828760      10.27449677       66      -0.02465933       0.06838119       0.16687423
O        6.62123605       6.57247723       0.28141355       67       0.03502509      -0.06244954      -0.13339457
O       11.77268432       6.42080466       9.68847980       68       0.06205851       0.10058504      -0.12365793
O        3.19222251       5.87012403       0.86884417       69      -0.00181077      -0.09360135       0.11181109
O        9.92919701       1.65261466       0.32039913       70       0.05113354      -0.00406849      -0.05785799
O        5.03430678      10.63995205      10.23816119       71      -0.02415726      -0.01786852       0.06309494
O        5.86728614       6.68641275       6.25998568       72       0.04561954      -0.14480406      -0.05060044
O        9.09507319       5.60415988       4.29908222       73       0.01690172       0.13170880       0.07243672
O        2.75893968       3.51656747       1.98843353       74      -0.01319163      -0.02860112       0.02911448
O       12.20533839       8.77503444       8.57034006       75      -0.01962603      -0.00460474      -0.02069765
O        3.21634070       3.08064661       9.45614461       76       0.03413974       0.04410702      -0.05653725
O       11.74749285       9.21138039       1.10044241       77      -0.05069065      -0.08587715       0.08126395
78
Lattice="10.01793988 0.0 0.0 4.1312092851181 9.115006891436725 0.0 0.8183945745327417 3.175158750579773 10.56260309653222" Properties=species:S:1:pos:R:3:spacegroup_kinds:I:1:forces:R:3 spacegroup="P 1" unit_cell=conventional occupancy="_JSON {\"0\": {\"Cd\": 1}, \"1\": {\"Cd\": 1}, \"2\": {\"H\": 1}, \"3\": {\"H\": 1}, \"4\": {\"H\": 1}, \"5\": {\"H\": 1}, \"6\": {\"H\": 1}, \"7\": {\"H\": 1}, \"8\": {\"H\": 1}, \"9\": {\"H\": 1}, \"10\": {\"H\": 1}, \"11\": {\"H\": 1}, \"12\": {\"H\": 1}, \"13\": {\"H\": 1}, \"14\": {\"H\": 1}, \"15\": {\"H\": 1}, \"16\": {\"H\": 1}, \"17\": {\"H\": 1}, \"18\": {\"H\": 1}, \"19\": {\"H\": 1}, \"20\": {\"H\": 1}, \"21\": {\"H\": 1}, \"22\": {\"H\": 1}, \"23\": {\"H\": 1}, \"24\": {\"H\": 1}, \"25\": {\"H\": 1}, \"26\": {\"H\": 1}, \"27\": {\"H\": 1}, \"28\": {\"H\": 1}, \"29\": {\"H\": 1}, \"30\": {\"C\": 1}, \"31\": {\"C\": 1}, \"32\": {\"C\": 1}, \"33\": {\"C\": 1}, \"34\": {\"C\": 1}, \"35\": {\"C\": 1}, \"36\": {\"C\": 1}, \"37\": {\"C\": 1}, \"38\": {\"C\": 1}, \"39\": {\"C\": 1}, \"40\": {\"C\": 1}, \"41\": {\"C\": 1}, \"42\": {\"C\": 1}, \"43\": {\"C\": 1}, \"44\": {\"C\": 1}, \"45\": {\"C\": 1}, \"46\": {\"C\": 1}, \"47\": {\"C\": 1}, \"48\": {\"C\": 1}, \"49\": {\"C\": 1}, \"50\": {\"C\": 1}, \"51\": {\"C\": 1}, \"52\": {\"C\": 1}, \"53\": {\"C\": 1}, \"54\": {\"C\": 1}, \"55\": {\"C\": 1}, \"56\": {\"C\": 1}, \"57\": {\"C\": 1}, \"58\": {\"N\": 1}, \"59\": {\"N\": 1}, \"60\": {\"N\": 1}, \"61\": {\"N\": 1}, \"62\": {\"O\": 1}, \"63\": {\"O\": 1}, \"64\": {\"O\": 1}, \"65\": {\"O\": 1}, \"66\": {\"O\": 1}, \"67\": {\"O\": 1}, \"68\": {\"O\": 1}, \"69\": {\"O\": 1}, \"70\": {\"O\": 1}, \"71\": {\"O\": 1}, \"72\": {\"O\": 1}, \"73\": {\"O\": 1}, \"74\": {\"O\": 1}, \"75\": {\"O\": 1}, \"76\": {\"O\": 1}, \"77\": {\"O\": 1}}" energy=-505.1449279785156 free_energy=-505.1449279785156 stress="-0.006738267373293638 -0.0003253217146266252 -9.302966645918787e-05 -0.0003253217146266252 -0.0008586665499024093 0.0017633322859182954 -9.302966645918787e-05 0.0017633322859182954 -0.0023108129389584064" pbc="T T T"
Cd       2.43995387       1.77201388       0.29730226        0      -0.05532378      -0.14406906       0.20604283
Cd      12.52599533      10.51728030      10.26260007        1       0.04660163       0.17565140      -0.24974447
H        2.95899374       4.39232738       1.52561124        2      -0.01924753      -0.02971193      -0.02316411
H       12.00427068       7.89996241       9.02972361        3       0.03308328       0.02848861       0.02530108
H        3.61198337       3.15904868       2.29238986        4      -0.15046251      -0.00484206      -0.08122914
H       11.34913376       9.13055179       8.26890407        5       0.03389439       0.07089280       0.03014343
H        8.15951616      11.63817422       9.59715948        6      -0.10625723       0.10045195       0.01952097
H        6.80682033       0.65367538       0.96000129        7      -0.03663876      -0.00988361      -0.04639405
H        6.58377852      11.61989434       9.72836841        8       0.09032797       0.13040176      -0.01987563
H        8.37818366       0.67306089       0.82988625        9      -0.02950298      -0.08843766      -0.00723417
H        3.99024360       5.61436037       7.13465497       10       0.02321701      -0.00779718       0.09957618
H       10.97072036       6.67852421       3.42166920       11       0.01186898       0.00453325      -0.04884484
H        3.40696820       4.45529894       5.90481520       12      -0.01256303       0.10868915      -0.00468333
H       11.55709921       7.83364710       4.65246467       13       0.00374570      -0.04575627       0.03114472
H        3.01659320       5.39165229       3.55450815       14       0.01699558      -0.02977396      -0.05418377
H       11.94637177       6.90189242       7.00206022       15      -0.02149615      -0.00815564       0.04120414
H        3.44572438       7.08265126       3.24545543       16       0.07727423       0.13245201      -0.02499792
H       11.51674723       5.20826611       7.31429020       17      -0.06093908      -0.09176756      -0.01415879
H       13.79787394       9.24268728       4.45270734       18      -0.02238955      -0.02768035      -0.01548929
H        1.16330733       3.05204847       6.10228116       19       0.01906340       0.02903496       0.01882081
H       10.46735240       1.67235819       2.66267342       20      -0.03549501       0.07454602       0.04299008
H        4.49418034      10.62226974       7.89556306       21       0.03063492      -0.05800937      -0.06427974
H        8.07217283       8.62841925       2.13296351       22       0.04384816       0.00353105      -0.03221710
H        6.88952722       3.66683450       8.42211229       23       0.00116822      -0.02207325       0.00178784
H        7.44273891       6.99336769       3.93419605       24       0.02241302       0.07786497       0.02905363
H        7.51877393       5.29719857       6.62220098       25      -0.06697364      -0.02362618      -0.04931262
H        6.79857607       7.73578076       8.19277726       26       0.06551629       0.00586560      -0.05346103
H        8.16181040       4.55671664       2.36472271       27      -0.05087878      -0.01404062       0.04698426
H        9.52545494       7.88887740       8.10958796       28      -0.03809883      -0.00261161      -0.02078497
H        5.43657531       4.40473192       2.44699472       29       0.02815633      -0.01509890       0.03210430
C        3.35800574       5.50496985       6.25027509       30      -0.02858626       0.02335981       0.05101964
C       11.60494493       6.78631166       4.30715500       31      -0.02451319      -0.08476344      -0.08375573
C        3.02467826       6.40427884       3.98507124       32       0.02090485      -0.02250214       0.03507966
C       11.93661136       5.88751355       6.57224775       33       0.02460918      -0.00040075       0.03474498
C        5.10648603       6.95128845       5.31715232       34      -0.01869853       0.13986942       0.05165669
C        9.85944719       5.33818588       5.23682415       35      -0.02025406      -0.18057382       0.16189277
C        5.52188556       7.95141073       4.27939492       36       0.09110640       0.02300632      -0.04644126
C        9.43958565       4.34258877       6.27776801       37      -0.05685017      -0.04728773      -0.01102453
C        4.73369483       9.06167419       3.95674745       38      -0.09604487       0.00950311      -0.00370133
C       10.22698089       3.23215897       6.59789132       39       0.11687955      -0.03399734       0.03180842
C        5.17482251       9.93079838       2.96723455       40       0.05948821      -0.05656669       0.01490112
C        9.78619161       2.36306488       7.58741124       41      -0.03488061       0.00374454       0.00331111
C        7.12571523       8.71461568       2.66692500       42      -0.04020524      -0.02916869       0.02222654
C        7.83643116       3.57697292       7.88589360       43      -0.07621533       0.04079983       0.05590861
C        6.76899430       7.80798238       3.66328751       44       0.00570181       0.07469630      -0.03395835
C        8.19145813       4.48402183       6.89105739       45       0.05994975      -0.08805510       0.03101251
C        7.19172304       6.22283766       9.74588782       46       0.00373505      -0.11378381       0.05437113
C        7.77224657       6.06910691       0.80937835       47      -0.07528253       0.05177791      -0.02995016
C        7.50569360       7.18681938       8.80285046       48      -0.10778028      -0.03163515       0.02444565
C        7.45683282       5.10300661       1.75018214       49       0.10511020       0.04510275       0.01041499
C        8.93300224       7.25196484       8.75811249       50       0.03807747       0.07195829      -0.03366093
C        6.02937004       5.03875682       1.79719900       51      -0.00058532      -0.02868410       0.01068507