78
Lattice="8.77434437 0.0 0.0 -2.3855694098997837 8.443807774943018 0.0 -2.47782988695768 -3.274998586266383 11.848095154090736" Properties=species:S:1:pos:R:3:spacegroup_kinds:I:1:forces:R:3 spacegroup="P 1" unit_cell=conventional occupancy="_JSON {\"0\": {\"Cd\": 1}, \"1\": {\"Cd\": 1}, \"2\": {\"H\": 1}, \"3\": {\"H\": 1}, \"4\": {\"H\": 1}, \"5\": {\"H\": 1}, \"6\": {\"H\": 1}, \"7\": {\"H\": 1}, \"8\": {\"H\": 1}, \"9\": {\"H\": 1}, \"10\": {\"H\": 1}, \"11\": {\"H\": 1}, \"12\": {\"H\": 1}, \"13\": {\"H\": 1}, \"14\": {\"H\": 1}, \"15\": {\"H\": 1}, \"16\": {\"H\": 1}, \"17\": {\"H\": 1}, \"18\": {\"H\": 1}, \"19\": {\"H\": 1}, \"20\": {\"H\": 1}, \"21\": {\"H\": 1}, \"22\": {\"H\": 1}, \"23\": {\"H\": 1}, \"24\": {\"H\": 1}, \"25\": {\"H\": 1}, \"26\": {\"H\": 1}, \"27\": {\"H\": 1}, \"28\": {\"H\": 1}, \"29\": {\"H\": 1}, \"30\": {\"H\": 1}, \"31\": {\"H\": 1}, \"32\": {\"H\": 1}, \"33\": {\"H\": 1}, \"34\": {\"C\": 1}, \"35\": {\"C\": 1}, \"36\": {\"C\": 1}, \"37\": {\"C\": 1}, \"38\": {\"C\": 1}, \"39\": {\"C\": 1}, \"40\": {\"C\": 1}, \"41\": {\"C\": 1}, \"42\": {\"C\": 1}, \"43\": {\"C\": 1}, \"44\": {\"C\": 1}, \"45\": {\"C\": 1}, \"46\": {\"C\": 1}, \"47\": {\"C\": 1}, \"48\": {\"C\": 1}, \"49\": {\"C\": 1}, \"50\": {\"C\": 1}, \"51\": {\"C\": 1}, \"52\": {\"C\": 1}, \"53\": {\"C\": 1}, \"54\": {\"C\": 1}, \"55\": {\"C\": 1}, \"56\": {\"C\": 1}, \"57\": {\"C\": 1}, \"58\": {\"S\": 1}, \"59\": {\"S\": 1}, \"60\": {\"S\": 1}, \"61\": {\"S\": 1}, \"62\": {\"S\": 1}, \"63\": {\"S\": 1}, \"64\": {\"S\": 1}, \"65\": {\"S\": 1}, \"66\": {\"N\": 1}, \"67\": {\"N\": 1}, \"68\": {\"N\": 1}, \"69\": {\"N\": 1}, \"70\": {\"N\": 1}, \"71\": {\"N\": 1}, \"72\": {\"N\": 1}, \"73\": {\"N\": 1}, \"74\": {\"N\": 1}, \"75\": {\"N\": 1}, \"76\": {\"N\": 1}, \"77\": {\"N\": 1}}" energy=-470.9562072753906 free_energy=-470.9562072753906 stress="-0.009674005210399628 0.00526040606200695 -0.00016481458442285657 0.00526040606200695 -0.006455416325479746 -7.66817684052512e-05 -0.00016481458442285657 -7.66817684052512e-05 -0.004141321871429682" pbc="T T T"
Cd       6.72727663      -2.31390255       8.88578899        0      -0.00768210       0.00666250      -0.00332347
Cd      -2.81639159       7.48266542       2.96203687        1       0.00751964      -0.01020452       0.00060291
H        2.60348982       5.78003394       0.03489941        2       0.01745085       0.01020979       0.02172282
H        0.29443483       2.72924557       5.88851758        3       0.00909312      -0.01719414      -0.02575871
H        1.30900432      -0.61083053      11.81341245        4      -0.02990709      -0.00034866      -0.01779112
H        3.61731234       2.43554325       5.96122693        5      -0.01934565       0.05127892       0.01291601
H       -1.19967022       4.59828240      10.60197291        6      -0.05705883       0.05926054      -0.02387496
H       -2.07566549       3.43888829       7.17132335        7      -0.10599426       0.05978292       0.01201390
H        5.11058020       0.57236779       1.24675792        8       0.05278447      -0.04812232       0.00583667
H        5.98749295       1.72985409       4.67868150        9       0.03253389       0.01217951      -0.02396474
H        3.55340567       2.22031083      10.31001564       10       0.12025822      -0.02108488      -0.04002675
H        1.49817756      -0.49573795       7.46436458       11       0.07456660       0.02587806      -0.00999758
H        0.35531325       2.94550547       1.53622234       12      -0.05016384       0.06535971       0.01963494
H        2.41252100       5.66063397       4.38809438       13      -0.09344922       0.06241864      -0.04445362
H        2.61358847       1.74128121      11.75301339       14       0.06824638      -0.01874984       0.03726549
H        1.70598968       0.54596541       6.01809673       15       0.03275204      -0.08062880       0.03899360
H        1.29760231       3.42683288       0.09295065       16      -0.06868996       0.02460169      -0.00993218
H        2.20510675       4.62607241       5.83018070       17      -0.05013721       0.03982798      -0.07511340
H        2.30808313       0.94167234      10.16793341       18      -0.00008288       0.01386698       0.05500582
H        2.39010429       1.05423528       7.60269279       19       0.08099966       0.04127370       0.01220676
H        1.60318864       4.22467454       1.67775550       20       0.01517166       0.10586651       0.00577538
H        1.52126405       4.11302310       4.24159939       21      -0.12429421      -0.07035895      -0.01948314
H       -0.83447122       5.78449177       8.46185565       22      -0.12278476       0.06358002      -0.06796953
H       -3.12286567       2.76186017       9.31168182       23      -0.07938674       0.06659820       0.05678551
H        4.74374247      -0.61841996       3.38659003       24       0.13051569      -0.05208277       0.05934282
H        7.03540320       2.40804638       2.53738848       25       0.08060901      -0.10523380      -0.07705268
H        3.14748619      -1.89569913       8.76487670       26      -0.01886398       0.00518239      -0.02030941
H        5.35103348       1.01875306       9.00489197       27      -0.01783609      -0.00504732       0.00664472
H        0.76386467       7.06929007       3.07986730       28      -0.02101514      -0.07173324       0.01028957
H       -1.44407805       4.15032513       2.84313079       29       0.00639524      -0.02089464      -0.04009467
H        0.58253758       5.35482453       7.44064225       30      -0.05704131       0.08639821       0.05997335
H       -2.32588075       1.51637306      10.32659268       31      -0.04244193      -0.01624706       0.07222392
H        3.33079938      -0.18922427       4.40515376       32       0.00741002      -0.04109792       0.03848322
H        6.23575983       3.65369843       1.51799873       33       0.03330854      -0.00443551      -0.06501264
C        1.71358766       3.80948553       9.34165793       34      -0.22335567      -0.29090908      -0.02594766
C       -0.52801045       0.84685790       8.42961111       35       0.20740843       0.29594815       0.04483834
C        2.19911128       1.35519978       2.50666325       36       0.09922455       0.43769401       0.00529777
C        4.43891864       4.32111484       3.41921817       37      -0.17808288      -0.24410556      -0.10099581
C        0.39802342       3.10371258      11.02596454       38       0.08908600      -0.08237207      -0.08579016
C       -0.20510007       2.30555981       6.74725332       39       0.06968039      -0.04243687       0.05073738
C        3.51173838       2.06736762       0.82281526       40      -0.04776520       0.08704770       0.02361298
C        4.11443715       2.86615057       5.10411584       41       0.02013162       0.01909107      -0.12658381
C       -0.24011463       4.13605559      10.40828340       42       0.00672910       0.04569158      -0.02392551
C       -1.37418603       2.63828967       7.36212197       43       0.03689933      -0.01807573       0.01770186
C        4.14985803       1.03445847       1.43613329       44       0.04836419      -0.14202549       0.14327431
C        5.28354395       2.53237204       4.48777336       45       0.04797913      -0.06179231      -0.00418687
C        2.57922150       1.88618017      10.66797690       46      -0.02915861      -0.14877039       0.00018018
C        1.55826556       0.53699034       7.10583758       47       0.02560550      -0.09026231      -0.10649160
C        1.33079300       3.28520009       1.17927360       48      -0.01391277      -0.07569663      -0.04265209
C        2.34982943       4.62907833       4.74087805       49       0.05455108       0.11625133       0.19221690
C        0.24789450       5.62683032       8.45236216       50      -0.03672268      -0.04148140      -0.14015642
C       -2.67643284       1.76181824       9.31885677       51       0.01948599       0.16662811      -0.01066010
C        3.66202417      -0.45604324       3.39506902       52       0.14438781      -0.02407011       0.08523253
C        6.58506617       3.40494063       2.52535693       53       0.03531144      -0.06694242       0.07926175
C       -3.48659579       4.25548987      11.66715286       54      -0.03338883       0.12466151      -0.10428753
C       -2.37214980       5.72908334       6.10517997       55      -0.00945961       0.01542733      -0.03091589
C        7.39718607       0.91214850       0.17938993       56       0.02659979      -0.11168233       0.10416251
C        6.27946882      -0.55712995       5.74397672       57       0.23748827       0.01876270      -0.24595708
S        2.99669989       3.93984695       8.23713444       58       0.16374341      -0.07910044       0.07277800
S       -0.30235800      -0.42571227       9.53313341       59       0.10179698      -0.10356818      -0.09025466
S        0.91014681       1.23019732       3.61028050       60      -0.08935586       0.06409288      -0.11380918
S        4.21187540       5.59494363       2.31649453       61      -0.09850810       0.09537318       0.08632123
S       -0.94309862       6.45484586       1.04930106       62      -0.05518745      -0.11292943       0.12635726
S       -1.31750494       5.95476078       4.87452489       63       0.07750103       0.09261654      -0.12161662
S        4.85295298      -1.28902226      10.79752231       64       0.05616366       0.13837388      -0.15834054
S        5.22958462      -0.78775531       6.97351740       65      -0.12514088      -0.09077313       0.16724434
N        1.60082183       2.90960303      10.36852188       66       0.18203963      -0.31126466       0.52301526
N        0.30654392       1.20047799       7.40372510       67       0.40454054      -0.11118722      -0.53031731
N        2.31118566       2.25928185       1.47972663       68      -0.29990217       0.32182717      -0.45897305
N        3.60481210       3.97100690       4.44437302       69      -0.44523543       0.03023332       0.61034977
N        0.56691449       4.55625925       9.36999583       70      -0.38539022       0.67587376      -0.13503668
N       -1.55676464       1.74970231       8.40023758       71      -0.86455309       0.10792655       0.25784808
N        3.34548830       0.61275921       2.47885999       72       0.40669715      -0.61702800       0.04119571
N        5.46928330       3.41933159       3.44757197       73       0.74179381      -0.13070610      -0.20210791
N       -3.48100295       4.99193665      10.73874194       74       0.13829251       0.08248425      -0.16437420
N       -3.07456404       5.52143168       7.03441549       75      -0.15376082      -0.16993017       0.29451874
N        7.38870395       0.18016676       1.11075698       76      -0.12935743      -0.12322268       0.19863170
N        6.98524674      -0.35342354       4.81216903       77      -0.02670377       0.13756582      -0.06295460
78
Lattice="8.77434437 0.0 0.0 -2.3855694098997837 8.443807774943018 0.0 -2.47782988695768 -3.274998586266383 11.848095154090736" Properties=species:S:1:pos:R:3:spacegroup_kinds:I:1:forces:R:3 spacegroup="P 1" unit_cell=conventional occupancy="_JSON {\"0\": {\"Cd\": 1}, \"1\": {\"Cd\": 1}, \"2\": {\"H\": 1}, \"3\": {\"H\": 1}, \"4\": {\"H\": 1}, \"5\": {\"H\": 1}, \"6\": {\"H\": 1}, \"7\": {\"H\": 1}, \"8\": {\"H\": 1}, \"9\": {\"H\": 1}, \"10\": {\"H\": 1}, \"11\": {\"H\": 1}, \"12\": {\"H\": 1}, \"13\": {\"H\": 1}, \"14\": {\"H\": 1}, \"15\": {\"H\": 1}, \"16\": {\"H\": 1}, \"17\": {\"H\": 1}, \"18\": {\"H\": 1}, \"19\": {\"H\": 1}, \"20\": {\"H\": 1}, \"21\": {\"H\": 1}, \"22\": {\"H\": 1}, \"23\": {\"H\": 1}, \"24\": {\"H\": 1}, \"25\": {\"H\": 1}, \"26\": {\"H\": 1}, \"27\": {\"H\": 1}, \"28\": {\"H\": 1}, \"29\": {\"H\": 1}, \"30\": {\"H\": 1}, \"31\": {\"H\": 1}, \"32\": {\"H\": 1}, \"33\": {\"H\": 1}, \"34\": {\"C\": 1}, \"35\": {\"C\": 1}, \"36\": {\"C\": 1}, \"37\": {\"C\": 1}, \"38\": {\"C\": 1}, \"39\": {\"C\": 1}, \"40\": {\"C\": 1}, \"41\": {\"C\": 1}, \"42\": {\"C\": 1}, \"43\": {\"C\": 1}, \"44\": {\"C\": 1}, \"45\": {\"C\": 1}, \"46\": {\"C\": 1}, \"47\": {\"C\": 1}, \"48\": {\"C\": 1}, \"49\": {\"C\": 1}, \"50\": {\"C\": 1}, \"51\": {\"C\": 1}, \"52\": {\"C\": 1}, \"53\": {\"C\": 1}, \"54\": {\"C\": 1}, \"55\": {\"C\": 1}, \"56\": {\"C\": 1}, \"57\": {\"C\": 1}, \"58\": {\"S\": 1}, \"59\": {\"S\": 1}, \"60\": {\"S\": 1}, \"61\": {\"S\": 1}, \"62\": {\"S\": 1}, \"63\": {\"S\": 1}, \"64\": {\"S\": 1}, \"65\": {\"S\": 1}, \"66\": {\"N\": 1}, \"67\": {\"N\": 1}, \"68\": {\"N\": 1}, \"69\": {\"N\": 1}, \"70\": {\"N\": 1}, \"71\": {\"N\": 1}, \"72\": {\"N\": 1}, \"73\": {\"N\": 1}, \"74\": {\"N\": 1}, \"75\": {\"N\": 1}, \"76\": {\"N\": 1}, \"77\": {\"N\": 1}}" energy=-470.975341796875 free_energy=-470.975341796875 stress="-0.009030453860759735 0.005158807151019573 -0.0001886564277810976 0.005158807151019573 -0.005766889080405235 -0.000570339965634048 -0.0001886564277810976 -0.000570339965634048 -0.0034084098879247904" pbc="T T T"
Cd       6.72671993      -2.31416647       8.88614704        0      -0.00492761       0.00931242      -0.00255530
Cd      -2.81606204       7.48365317       2.96252296        1       0.01247571      -0.01576882       0.00100368
H        2.60515300       5.77819288       0.03526980        2       0.02762713       0.06053010      -0.03709620
H        0.29228119       2.72914161       5.88662241        3       0.01284604      -0.03393729      -0.00665516
H        1.30807965      -0.61257968      11.81547779        4       0.00796572       0.07339050      -0.12221277
H        3.61528770       2.43850232       5.96268662        5       0.00453455       0.06107026      -0.02115649
H       -1.19983250       4.59681575      10.60137574        6      -0.06972481       0.06785353      -0.02160455
H       -2.07578102       3.44151327       7.17077360        7       0.00187534      -0.04830629       0.02296024
H        5.11033769       0.57139514       1.24636593        8       0.03833073      -0.04365906       0.00463910
H        5.98593129       1.73204498       4.67982600        9       0.08748768      -0.05635649      -0.01389270
H        3.55287327       2.21877209      10.30822902       10       0.08028257      -0.03559176      -0.01689258
H        1.49742584      -0.49364911       7.46204339       11       0.06947382      -0.13114916       0.04791230
H        0.35460576       2.94497981       1.53476096       12      -0.01650932       0.07215304       0.00221611
H        2.41356775       5.66304926       4.39019803       13      -0.10973451      -0.02466124      -0.02415758
H        2.61164120       1.74386374      11.75535505       14       0.07957835      -0.04649595      -0.03056692
H        1.70601015       0.54461290       6.01920726       15       0.04192783      -0.07940465       0.02392842
H        1.29631391       3.42895187       0.09419183       16      -0.06147188       0.03214236      -0.09703663
H        2.20575755       4.62821054       5.82836751       17      -0.08120896       0.02534494       0.06608163
H        2.30864949       0.94178614      10.16605039       18      -0.02546617      -0.04225036       0.04724997
H        2.38890779       1.05315100       7.60463191       19       0.07706317       0.02010897      -0.00374447
H        1.60029700       4.22523128       1.67970195       20       0.01614722       0.06760849      -0.01963950
H        1.52042345       4.11041006       4.24024324       21      -0.08522130      -0.02162416       0.02720322
H       -0.83483500       5.78439762       8.45899515       22      -0.05848180       0.05566513      -0.06838986
H       -3.12365873       2.76267613       9.31038425       23      -0.10420965       0.10771617       0.05402593
H        4.74509096      -0.62095648       3.38679544       24       0.14534169      -0.05305310       0.06418382
H        7.03464932       2.40966536       2.53639423       25       0.08425470      -0.09415233      -0.05506354
H        3.14702998      -1.89587708       8.76271896       26      -0.00907268       0.00578472      -0.02161906
H        5.35129203       1.01833876       9.00410141       27      -0.00573474       0.02527575       0.01798896
H        0.76279351       7.06686394       3.07944299       28       0.04131351       0.02229405       0.05568362
H       -1.44391860       4.15306401       2.84445020       29      -0.00405764      -0.03714976      -0.05885991
H        0.58111197       5.35506473       7.44008290       30      -0.01502264       0.04723681      -0.01075547
H       -2.32832000       1.51874854      10.32607135       31      -0.03111743      -0.01464004       0.07367267
H        3.33339213      -0.19206023       4.40539090       32      -0.01745867      -0.00914467       0.11677762
H        6.23392691       3.65117851       1.51681996       33       0.06207112       0.00384981       0.01523850
C        1.71206546       3.80816198       9.34130866       34      -0.17385000      -0.28435463      -0.01704614
C       -0.52718752       0.84799669       8.43073464       35       0.16231824       0.32467195       0.01274171
C        2.19999099       1.35710864       2.50740394       36       0.12601306       0.37365389      -0.00762357
C        4.43900120       4.32184248       3.41730334       37      -0.23480420      -0.27098721       0.01774891
C        0.40048000       3.10395356      11.02518301       38      -0.03309125      -0.09732163       0.01292223
C       -0.20325417       2.30354637       6.74745659       39       0.10053083      -0.01714462      -0.01055849
C        3.51151994       2.06942426       0.82304898       40      -0.02901879      -0.10528713       0.16545612
C        4.11264770       2.86875464       5.10394783       41       0.10511968      -0.10862112      -0.09840333
C       -0.23971956       4.13718839      10.40627644       42      -0.00529921      -0.04932515       0.10010624
C       -1.37169496       2.63699136       7.36133041       43      -0.14097324       0.14860559       0.00251573
C        4.14854296       1.03210449       1.43632104       44       0.06730807      -0.05485297       0.07888782
C        5.28272310       2.53104176       4.48617600       45      -0.06710289       0.08907387       0.01531470
C        2.57765889       1.88368371      10.66756468       46       0.06715401      -0.08150500       0.08507134
C        1.55772116       0.53441251       7.10643091       47       0.09357762       0.06133083      -0.14672142
C        1.33126182       3.28515910       1.17723057       48      -0.08345671      -0.03956993       0.09211846
C        2.34810391       4.62884741       4.74368192       49       0.06040384       0.16382559      -0.02778152
C        0.24973093       5.62569504       8.44988583       50      -0.17718688       0.01096551      -0.04230002
C       -2.67723991       1.76429604       9.31790167       51      -0.01486482       0.09406660      -0.01039311
C        3.66427185      -0.45636762       3.39772320       52       0.08288094      -0.16749211      -0.05308826
C        6.58427633       3.40702358       2.52804888       53       0.09475820      -0.06882806      -0.07285769
C       -3.48790660       4.25480361      11.66896336       54      -0.02253825       0.28906012      -0.31676343
C       -2.37180767       5.73069046       6.10242647       55      -0.23498845      -0.05612249       0.26401165
C        7.39725485       0.91121353       0.18194057       56       0.02250423      -0.11757427       0.10534999
C        6.27978201      -0.55916544       5.74163820       57       0.14647827       0.01309691      -0.13831198
S        2.99670566       3.94256102       8.23613804       58       0.11675780      -0.10021421       0.10939467
S       -0.30301614      -0.42430358       9.53303082       59       0.10394116      -0.11288335      -0.07943287
S        0.90786131       1.23148072       3.60781497       60      -0.06156208       0.06900957      -0.11548617
S        4.20915114       5.59769512       2.31858059       61      -0.08841839       0.08262587       0.08081205
S       -0.94464261       6.45238994       1.05131369       62      -0.06034388      -0.07982007       0.09152252
S       -1.31870878       5.95444165       4.87291901       63       0.09879322       0.10542728      -0.14501873
S        4.85361048      -1.28922014      10.79581618       64       0.05922379       0.07981560      -0.07976925
S        5.22715206      -0.79013425       6.97468074       65      -0.05264950      -0.07812340       0.08492629
N        1.60155770       2.90763551      10.37100232       66       0.16001433      -0.19172424       0.36447251
N        0.30913920       1.19890844       7.40301088       67       0.25865257      -0.07936532      -0.44403896
N        2.31031037       2.25991504       1.47760189       68      -0.24526025       0.26280621      -0.38527077
N        3.60286070       3.97003968       4.44601993       69      -0.36764950       0.12989514       0.46033865
N        0.56534106       4.55736214       9.37137311       70      -0.24978127       0.63932723      -0.24424130
N       -1.55945322       1.75152929       8.39963732       71      -0.67136174       0.01345878       0.23682082
N        3.34759047       0.60989563       2.47971730       72       0.26957729      -0.46124238       0.01653807
N        5.47217147       3.42188369       3.44839237       73       0.57907927      -0.16189516      -0.11380225
N       -3.47828603       4.99391189      10.73817220       74       0.13382532      -0.11204904       0.08393475
N       -3.07609501       5.51936678       7.03449842       75       0.04917482      -0.10644382       0.02781793
N        7.38777510       0.17750283       1.11317745       76      -0.13182485      -0.05195230       0.11412859
N        6.98360882      -0.35107041       4.81001180       77      -0.00323716       0.13399020      -0.08290902
78
Lattice="8.77434437 0.0 0.0 -2.3855694098997837 8.443807774943018 0.0 -2.47782988695768 -3.274998586266383 11.848095154090736" Properties=species:S:1:pos:R:3:spacegroup_kinds:I:1:forces:R:3 spacegroup="P 1" unit_cell=conventional occupancy="_JSON {\"0\": {\"Cd\": 1}, \"1\": {\"Cd\": 1}, \"2\": {\"H\": 1}, \"3\": {\"H\": 1}, \"4\": {\"H\": 1}, \"5\": {\"H\": 1}, \"6\": {\"H\": 1}, \"7\": {\"H\": 1}, \"8\": {\"H\": 1}, \"9\": {\"H\": 1}, \"10\": {\"H\": 1}, \"11\": {\"H\": 1}, \"12\": {\"H\": 1}, \"13\": {\"H\": 1}, \"14\": {\"H\": 1}, \"15\": {\"H\": 1}, \"16\": {\"H\": 1}, \"17\": {\"H\": 1}, \"18\": {\"H\": 1}, \"19\": {\"H\": 1}, \"20\": {\"H\": 1}, \"21\": {\"H\": 1}, \"22\": {\"H\": 1}, \"23\": {\"H\": 1}, \"24\": {\"H\": 1}, \"25\": {\"H\": 1}, \"26\": {\"H\": 1}, \"27\": {\"H\": 1}, \"28\": {\"H\": 1}, \"29\": {\"H\": 1}, \"30\": {\"H\": 1}, \"31\": {\"H\": 1}, \"32\": {\"H\": 1}, \"33\": {\"H\": 1}, \"34\": {\"C\": 1}, \"35\": {\"C\": 1}, \"36\": {\"C\": 1}, \"37\": {\"C\": 1}, \"38\": {\"C\": 1}, \"39\": {\"C\": 1}, \"40\": {\"C\": 1}, \"41\": {\"C\": 1}, \"42\": {\"C\": 1}, \"43\": {\"C\": 1}, \"44\": {\"C\": 1}, \"45\": {\"C\": 1}, \"46\": {\"C\": 1}, \"47\": {\"C\": 1}, \"48\": {\"C\": 1}, \"49\": {\"C\": 1}, \"50\": {\"C\": 1}, \"51\": {\"C\": 1}, \"52\": {\"C\": 1}, \"53\": {\"C\": 1}, \"54\": {\"C\": 1}, \"55\": {\"C\": 1}, \"56\": {\"C\": 1}, \"57\": {\"C\": 1}, \"58\": {\"S\": 1}, \"59\": {\"S\": 1}, \"60\": {\"S\": 1}, \"61\": {\"S\": 1}, \"62\": {\"S\": 1}, \"63\": {\"S\": 1}, \"64\": {\"S\": 1}, \"65\": {\"S\": 1}, \"66\": {\"N\": 1}, \"67\": {\"N\": 1}, \"68\": {\"N\": 1}, \"69\": {\"N\": 1}, \"70\": {\"N\": 1}, \"71\": {\"N\": 1}, \"72\": {\"N\": 1}, \"73\": {\"N\": 1}, \"74\": {\"N\": 1}, \"75\": {\"N\": 1}, \"76\": {\"N\": 1}, \"77\": {\"N\": 1}}" energy=-470.98553466796875 free_energy=-470.98553466796875 stress="-0.008536063134670258 0.004844969138503075 -0.00022898594033904374 0.004844969138503075 -0.005613050889223814 -0.00028838487924076617 -0.00022898594033904374 -0.00028838487924076617 -0.0035429869312793016" pbc="T T T"
Cd       6.72669277      -2.31448724       8.88706829        0      -0.00522270       0.01821295      -0.00583720
Cd      -2.81633861       7.48438743       2.96242557        1       0.02110258      -0.02415430      -0.00203359
H        2.60706951       5.77697992       0.03687009        2       0.04643364       0.15867732      -0.15886611
H        0.29214347       2.72726105       5.88526226        3       0.03674833      -0.02104699      -0.03646997
H        1.31000424      -0.61137211      11.81351205        4      -0.03673260      -0.00165355      -0.00367261
H        3.61542781       2.43760739       5.96391288        5       0.08028097       0.11183727      -0.13145156
H       -1.20146764       4.59731386      10.60011382        6      -0.08270101       0.06610459      -0.00679472
H       -2.07624761       3.44257697       7.16804149        7      -0.02973851      -0.02388842       0.02738473
H        5.11311469       0.57208701       1.24595582        8      -0.01031357      -0.02427217       0.00019403
H        5.98763683       1.73339631       4.68151774        9       0.05025454      -0.02675056      -0.00506809
H        3.55279073       2.21651535      10.30835572       10       0.13536420       0.00926545      -0.04737269
H        1.49778036      -0.49482151       7.46362750       11       0.07887147      -0.00300084       0.01122706
H        0.35369711       2.94301274       1.53649615       12       0.04082413       0.11013370      -0.01288509
H        2.41337628       5.66108865       4.38954094       13      -0.08681999       0.08414490      -0.05945629
H        2.61370499       1.74464725      11.75560859       14       0.08098382      -0.05585358      -0.03743878
H        1.70725041       0.54209032       6.01989340       15       0.05814248      -0.06277848      -0.01969601
H        1.29464939       3.42718508       0.09290871       16      -0.06290682       0.03818346      -0.00859699
H        2.20525259       4.63047073       5.82866072       17      -0.08787842       0.03030990       0.05680481
H        2.30788603       0.94059059      10.16401804       18       0.00310998       0.02833883       0.09997456
H        2.38652099       1.05486154       7.60590805       19       0.15258972       0.06504850       0.02679918
H        1.59981292       4.22590818       1.67820144       20       0.03054122       0.11441468       0.01090333
H        1.51809900       4.11177021       4.23844052       21      -0.01746783       0.01971881       0.07702009
H       -0.83589900       5.78327703       8.45633614       22      -0.08749454       0.07481394      -0.05230483
H       -3.12501349       2.76270967       9.30830799       23      -0.13043892       0.16825379       0.05802562
H        4.74740592      -0.61872451       3.38732788       24       0.17546403      -0.07971923       0.06413421
H        7.03545460       2.40784495       2.53823698       25       0.07029314       0.00787201      -0.08727618
H        3.14908479      -1.89406051       8.76150466       26      -0.04885489      -0.02068347      -0.02885412
H        5.35371408       1.01733578       9.00451999       27      -0.00956533       0.03397709       0.02054460
H        0.76306029       7.06707182       3.07898994       28       0.04482724      -0.02256324       0.04460206
H       -1.44362373       4.15488023       2.84654179       29       0.01824751      -0.02317741      -0.07090440
H        0.58049171       5.35711384       7.43787724       30      -0.03463423       0.06376065       0.05512162
H       -2.32711265       1.52141523      10.32444733       31      -0.02442972      -0.01635981       0.12912838
H        3.33264027      -0.19247501       4.40568412       32       0.01730428      -0.03995854       0.04679693
H        6.23308001       3.65359918       1.51581603       33       0.07423513       0.00336523       0.01125879
C        1.71147057       3.80747064       9.33926716       34      -0.21860687      -0.29759029       0.06674078
C       -0.52769101       0.85088973       8.43117898       35       0.24928899       0.21342239       0.03282779
C        2.20218627       1.35962205       2.50827315       36       0.06458101       0.30865744       0.02974930
C        4.43654315       4.32061099       3.41903043       37      -0.12670375      -0.27588153      -0.04903165
C        0.40042899       3.10671711      11.02286641       38      -0.10736904      -0.33609876       0.30894712
C       -0.20058215       2.30248613       6.74673009       39      -0.16625442       0.12887847       0.03402197
C        3.50932639       2.07096736       0.82534828       40       0.11146894      -0.08197311      -0.01630044
C        4.11538587       2.87097928       5.10280851       41      -0.10483454      -0.24776721       0.20502454
C       -0.24211963       4.13644910      10.40707645       42       0.06486019       0.10062300      -0.09072563
C       -1.37410319       2.63859495       7.36077087       43       0.11220396       0.04814520      -0.08766767
C        4.14799189       1.02969322       1.43457988       44       0.03696823       0.00300401       0.10117251
C        5.28351086       2.53339366       4.48810506       45       0.12355264      -0.01639715      -0.05700165
C        2.57946816       1.88428810      10.66761735       46      -0.07800160      -0.18743195       0.08944050
C        1.56047177       0.53685207       7.10568254       47      -0.06622240      -0.10387023      -0.08135299
C        1.33220708       3.28587287       1.17926881       48      -0.25110236      -0.04771736      -0.05549487
C        2.34818284       4.63126784       4.74376698       49      -0.03729111      -0.01930732      -0.00565761
C        0.24788984       5.62757414       8.45014114       50      -0.07544567       0.01109765      -0.13581775
C       -2.67869048       1.76692264       9.31908706       51       0.07578830       0.00805640      -0.11230208