96
Lattice="10.10201933 0.0 0.0 -1.6633987765899432 10.947502066537709 0.0 0.8182229885263875 -0.005332072493576255 11.010080505474775" Properties=species:S:1:pos:R:3:spacegroup_kinds:I:1:forces:R:3 spacegroup="P 1" unit_cell=conventional occupancy="_JSON {\"0\": {\"Zn\": 1}, \"1\": {\"Zn\": 1}, \"2\": {\"H\": 1}, \"3\": {\"H\": 1}, \"4\": {\"H\": 1}, \"5\": {\"H\": 1}, \"6\": {\"H\": 1}, \"7\": {\"H\": 1}, \"8\": {\"H\": 1}, \"9\": {\"H\": 1}, \"10\": {\"H\": 1}, \"11\": {\"H\": 1}, \"12\": {\"H\": 1}, \"13\": {\"H\": 1}, \"14\": {\"H\": 1}, \"15\": {\"H\": 1}, \"16\": {\"H\": 1}, \"17\": {\"H\": 1}, \"18\": {\"H\": 1}, \"19\": {\"H\": 1}, \"20\": {\"H\": 1}, \"21\": {\"H\": 1}, \"22\": {\"H\": 1}, \"23\": {\"H\": 1}, \"24\": {\"H\": 1}, \"25\": {\"H\": 1}, \"26\": {\"H\": 1}, \"27\": {\"H\": 1}, \"28\": {\"H\": 1}, \"29\": {\"H\": 1}, \"30\": {\"H\": 1}, \"31\": {\"H\": 1}, \"32\": {\"H\": 1}, \"33\": {\"H\": 1}, \"34\": {\"H\": 1}, \"35\": {\"H\": 1}, \"36\": {\"H\": 1}, \"37\": {\"H\": 1}, \"38\": {\"H\": 1}, \"39\": {\"H\": 1}, \"40\": {\"C\": 1}, \"41\": {\"C\": 1}, \"42\": {\"C\": 1}, \"43\": {\"C\": 1}, \"44\": {\"C\": 1}, \"45\": {\"C\": 1}, \"46\": {\"C\": 1}, \"47\": {\"C\": 1}, \"48\": {\"C\": 1}, \"49\": {\"C\": 1}, \"50\": {\"C\": 1}, \"51\": {\"C\": 1}, \"52\": {\"C\": 1}, \"53\": {\"C\": 1}, \"54\": {\"C\": 1}, \"55\": {\"C\": 1}, \"56\": {\"C\": 1}, \"57\": {\"C\": 1}, \"58\": {\"C\": 1}, \"59\": {\"C\": 1}, \"60\": {\"C\": 1}, \"61\": {\"C\": 1}, \"62\": {\"C\": 1}, \"63\": {\"C\": 1}, \"64\": {\"C\": 1}, \"65\": {\"C\": 1}, \"66\": {\"C\": 1}, \"67\": {\"C\": 1}, \"68\": {\"C\": 1}, \"69\": {\"C\": 1}, \"70\": {\"C\": 1}, \"71\": {\"C\": 1}, \"72\": {\"C\": 1}, \"73\": {\"C\": 1}, \"74\": {\"C\": 1}, \"75\": {\"C\": 1}, \"76\": {\"N\": 1}, \"77\": {\"N\": 1}, \"78\": {\"O\": 1}, \"79\": {\"O\": 1}, \"80\": {\"O\": 1}, \"81\": {\"O\": 1}, \"82\": {\"O\": 1}, \"83\": {\"O\": 1}, \"84\": {\"O\": 1}, \"85\": {\"O\": 1}, \"86\": {\"O\": 1}, \"87\": {\"O\": 1}, \"88\": {\"O\": 1}, \"89\": {\"O\": 1}, \"90\": {\"O\": 1}, \"91\": {\"O\": 1}, \"92\": {\"O\": 1}, \"93\": {\"O\": 1}, \"94\": {\"O\": 1}, \"95\": {\"O\": 1}}" energy=-600.8225708007812 free_energy=-600.8225708007812 stress="0.0019802262540906668 -0.0006137702730484307 -0.0055872187949717045 -0.0006137702730484307 -0.0008961288258433342 0.0009308382286690176 -0.0055872187949717045 0.0009308382286690176 0.0014915604842826724" pbc="T T T"
Zn       6.12430071       5.68618121       5.59609724        0       0.00704217      -0.15985721      -0.30344757
Zn       3.20783664       5.15361085       5.70321884        1      -0.19292098      -0.16552664      -0.67589539
H        1.03360261       6.73022203       2.92106722        2       0.16790393      -0.44727898      -0.70642436
H        1.74405189       7.64055883       4.31100403        3      -0.33282453       0.03982862      -0.32198817
H        6.81623508       7.52045061       9.45964402        4      -0.42785919       0.03854330       0.54732007
H        7.15327294       1.33952133       8.37421449        5      -0.06981673      -0.01923756       0.15624078
H        2.78991274       3.54919917       1.51756893        6      -0.04108744      -0.22049977      -0.08860153
H        2.74838927       9.37464045       4.15926416        7       0.95561659       1.22690296       1.11700523
H        2.33868640       1.70400711       0.29699582        8      -0.42084429       0.44360387      -0.68936688
H        1.81969962       1.84808216      10.01896852        9      -0.13587850      -0.70752811      -0.28342447
H        0.94970461       2.88234014       0.41767388       10       0.33669433       0.05535275      -0.04496563
H        0.89585966      10.44584178       3.67449419       11       0.15029864       0.08124427      -0.36989594
H        2.17023260      10.53613140       2.38732929       12       0.09759171      -0.14333402      -0.42253846
H        2.44565288       0.83821755       2.43063378       13       0.92887104      -0.86727881       0.51133883
H        5.27886607       8.37435653       9.69941662       14      -0.22691420       0.13605998       0.23677914
H        8.18284253       2.00984413       7.14498077       15       1.64087021       1.38498437      -0.60462660
H        8.07773245       5.94662002      10.87842339       16       0.45322812       0.35302550       1.05811942
H        6.98873945       5.61656147       1.62018807       17       0.06185347       0.45908630       0.12397131
H        8.46195924       6.58735092       1.13312890       18      -0.00493369      -0.33084375      -0.12566134
H        8.65994541      10.43449407       8.56146228       19      -1.83914924       0.39098197       1.23133683
H        7.80999123       9.69489907      10.00651017       20      -0.36333117       0.71398836      -0.52866727
H        9.08639754       0.44416829       9.53160649       21      -0.52711803       2.11442518       0.79616845
H        4.94184050      10.26014530       0.17638130       22      -0.34759465      -0.08438495       0.26044950
H        6.23222774       9.96527881       1.38059557       23      -1.43328071      -0.02528468       0.01089699
H        4.55199116      10.52989022       1.98294277       24       0.59807241      -0.64091873      -0.95667541
H        8.72552213       1.22269072       5.01522543       25       0.55965108      -0.52678859      -0.08964354
H        6.92007795      10.50689581       4.44836142       26      -0.21095234      -0.55211329      -0.32810330
H       10.20733662       0.22782539       4.65547586       27       0.34867692       0.10505681      -0.06656899
H        1.72568330       2.54544537       5.80487414       28       0.61664754       0.21756656      -3.34027600
H        1.13369982       1.44246935       7.06638718       29       0.04315890      -0.44705665      -0.19513187
H        2.33443071       2.74900091       7.42735237       30       0.01860753      -0.00104365      -0.05690826
H        7.81277380       5.47655370       9.01305558       31      -0.15644887       0.27498716       0.13765281
H        7.52577828       3.75877404       9.30172847       32      -0.69231832      -0.93439829       1.24653077
H        9.20836960       4.36933288       9.07042887       33       0.35210326      -0.24259074       0.23947366
H        0.03868399       8.88026440       1.99311992       34       0.73397303      -0.05272303      -0.28840858
H       -1.16103238       9.93268697       2.82197061       35       0.13898934      -0.58122581      -0.41376913
H        8.46319716       8.96527831       1.38721448       36      -0.39803463       0.00263786      -0.85976553
H       -0.04154890       9.82292975       6.65165099       37       0.27250111      -0.93610382      -0.16726781
H        1.05153229       8.38129881       6.27195110       38      -0.33745551       0.20820890      -0.05948438
H       -0.61789231       8.15175382       6.92144413       39      -0.17676379      -0.22390400       0.16104352
C        4.58174481       8.02813240       5.60775769       40       1.33129692      -0.68699479       0.07350090
C        4.21169285       5.31137091       3.00227216       41       0.09422451       0.39585933       2.10836935
C        5.36242781       7.59160008       0.64401199       42       0.10267359       0.52249748       0.58295047
C        6.33966339      10.70122413       7.16046418       43       2.86676407      -1.25053775       0.15485132
C        0.45036789       6.01051441       4.93490328       44      -0.19930568      -0.10890667      -0.93327844
C        0.04307626       4.32243475       6.43851006       45       0.20614398       5.18497849      -3.13991308
C        8.79902222       4.84537093       6.57509258       46      -1.32504380       0.35470638      -0.89690828
C        9.23497467       6.42936222       5.00814417       47      -0.59309036      -0.49568197       0.24368316
C       -0.60051122       7.65431022       4.18030822       48      -0.12687734       1.25584948       0.46988106
C        0.88808464       7.04659573       3.93631621       49      -0.23901880       0.67908293       1.31240487
C        5.27750178       2.87910554       5.55886711       50      -1.54600942      -1.34065127       0.34074369
C        4.29537695       5.29147517       8.17621430       51       2.25727367       0.45633492       0.64223021
C        4.60567682       6.26766767       0.67042079       52      -0.65089047      -1.15618110       1.53266072
C        5.08045921      10.44596693       6.35245130       53       0.77946573      -0.04252768       0.47853047
C        4.00429405       5.28962316       1.57707089       54       0.89155394       0.74806666      -3.82643890
C        4.34013540       9.49119633       5.59247403       55       1.70916224       0.76410639       1.77387238
C        3.26620212       4.29287496       0.88421240       56      -0.03691405       0.62782431       0.78637284
C        3.37601842      10.06868005       4.84306449       57      -2.96072769       0.95628804      -2.68823767
C        3.85133793       4.27779821      10.49264203       58       1.61156273       1.70654655       2.38153696
C        4.78317957       0.56933986       4.75788368       59       1.15294278      -3.99005651       0.54702777
C        4.41953647       5.27259608       9.70487748       60       0.88459551       0.96778286      -2.11339188
C        5.53288743       1.39906365       5.59208280       61      -1.17162037       2.08950663      -0.70183164
C        5.21759306       6.24059863      10.31045500       62      -0.60956478      -0.04539162       0.62884700
C        6.49061206       0.88226773       6.40214991       63      -0.84841907      -1.99758971      -0.61386257
C        5.89745151       7.57105104      10.09943571       64       0.73774505      -0.38366506      -1.40087461
C        7.55795132       1.21280483       7.35973960       65      -1.65590882      -0.58249378       1.26327264
C        2.45051107       2.35427585      10.73250019       66       0.79476464       1.25242758      -0.37385914
C        3.16369810       0.16097110       3.01865839       67      -0.95890474       0.96129537       0.59762079
C        7.41240064       6.35652198       0.92176619       68      -0.50559127       0.19106986      -1.12488151
C        7.62736768      10.43958276       9.17731707       69       3.26102161      -3.15299368      -1.89967060
C        5.09038701       9.88537328       1.20781237       70       1.62007487       1.48180878       0.76663804
C        9.20189725       0.19804985       5.06254225       71      -0.66119540       1.09741485       0.23279923
C        1.51790748       2.41806456       6.78148093       72      -1.88476527       0.89666235       4.14016676
C        8.15369317       4.46232862       8.83429953       73       0.36000717       0.72176695      -1.62034059
C       -1.00126908       8.98764113       2.24081003       74      -0.60235435       0.43777740       1.95044684
C        0.00416822       8.75652982       6.26534000       75       0.27088767       1.31988001       0.77504480
N        0.98778837       5.00605795       5.58897840       76      -1.14230680      -1.96141815       2.03442025
N        8.27511124       5.85600400       5.77472234       77       0.94839847      -1.03749073       0.84454048
O        5.82872134       7.64226583       5.67831251       78      -1.38142943       0.52004474      -0.12255955
O        5.34236345       5.63577770       3.49768115       79       0.13826591      -0.06066386      -0.36280143
O        3.57912015       7.24999195       5.55216064       80      -0.12619543      -0.00019778       0.11028025
O        3.16737213       5.07341264       3.71125568       81      -0.23209479      -0.37762830      -0.05553871
O        6.22080697       3.62444899       5.32277189       82       2.91176534       2.02656722      -0.59449911
O        5.40471293       5.46137649       7.51370188       83      -1.28759456      -0.14839700       0.97556746
O        4.10300447       3.26274120       5.79760882       84      -1.23988330       0.22662932       0.23466438
O        3.15911082       5.18350056       7.66203632       85      -1.05876017      -0.04809067      -0.20950645
O        3.16877518       3.36158476       9.86691651       86      -2.45926905      -3.54526377       0.24997762
O        3.91547940       1.04727785       3.86317760       87      -0.87126160       1.03018427      -0.68142295
O        6.72146935       7.64801694       0.99863449       88      -0.52939421      -0.95313680       0.04076066
O        6.64713230       9.90641190       8.28714548       89      -1.21260750       0.52346301      -0.83547562
O        4.67679506       8.55909663       1.37928965       90      -0.27669576      -1.10657859      -0.32446519
O        7.59376985      10.68630682       6.38865000       91      -0.91759294      -0.47456545       0.86822820
O        0.30450345       3.32051238       7.13532570       92       2.43004537      -4.50276423       1.82234478
O        7.91983653       4.15795595       7.42262911       93       1.25937128       0.89048785      -0.80611306
O        8.66877470       7.87989933       3.11300392       94       0.49804097       0.05260253      -0.04057507
O       -0.57767047       8.84568800       4.99100043       95       0.04641780      -0.82620806      -1.44460952
96
Lattice="10.10201933 0.0 0.0 -1.6633987765899432 10.947502066537709 0.0 0.8182229885263875 -0.005332072493576255 11.010080505474775" Properties=species:S:1:pos:R:3:spacegroup_kinds:I:1:forces:R:3 spacegroup="P 1" unit_cell=conventional occupancy="_JSON {\"0\": {\"Zn\": 1}, \"1\": {\"Zn\": 1}, \"2\": {\"H\": 1}, \"3\": {\"H\": 1}, \"4\": {\"H\": 1}, \"5\": {\"H\": 1}, \"6\": {\"H\": 1}, \"7\": {\"H\": 1}, \"8\": {\"H\": 1}, \"9\": {\"H\": 1}, \"10\": {\"H\": 1}, \"11\": {\"H\": 1}, \"12\": {\"H\": 1}, \"13\": {\"H\": 1}, \"14\": {\"H\": 1}, \"15\": {\"H\": 1}, \"16\": {\"H\": 1}, \"17\": {\"H\": 1}, \"18\": {\"H\": 1}, \"19\": {\"H\": 1}, \"20\": {\"H\": 1}, \"21\": {\"H\": 1}, \"22\": {\"H\": 1}, \"23\": {\"H\": 1}, \"24\": {\"H\": 1}, \"25\": {\"H\": 1}, \"26\": {\"H\": 1}, \"27\": {\"H\": 1}, \"28\": {\"H\": 1}, \"29\": {\"H\": 1}, \"30\": {\"H\": 1}, \"31\": {\"H\": 1}, \"32\": {\"H\": 1}, \"33\": {\"H\": 1}, \"34\": {\"H\": 1}, \"35\": {\"H\": 1}, \"36\": {\"H\": 1}, \"37\": {\"H\": 1}, \"38\": {\"H\": 1}, \"39\": {\"H\": 1}, \"40\": {\"C\": 1}, \"41\": {\"C\": 1}, \"42\": {\"C\": 1}, \"43\": {\"C\": 1}, \"44\": {\"C\": 1}, \"45\": {\"C\": 1}, \"46\": {\"C\": 1}, \"47\": {\"C\": 1}, \"48\": {\"C\": 1}, \"49\": {\"C\": 1}, \"50\": {\"C\": 1}, \"51\": {\"C\": 1}, \"52\": {\"C\": 1}, \"53\": {\"C\": 1}, \"54\": {\"C\": 1}, \"55\": {\"C\": 1}, \"56\": {\"C\": 1}, \"57\": {\"C\": 1}, \"58\": {\"C\": 1}, \"59\": {\"C\": 1}, \"60\": {\"C\": 1}, \"61\": {\"C\": 1}, \"62\": {\"C\": 1}, \"63\": {\"C\": 1}, \"64\": {\"C\": 1}, \"65\": {\"C\": 1}, \"66\": {\"C\": 1}, \"67\": {\"C\": 1}, \"68\": {\"C\": 1}, \"69\": {\"C\": 1}, \"70\": {\"C\": 1}, \"71\": {\"C\": 1}, \"72\": {\"C\": 1}, \"73\": {\"C\": 1}, \"74\": {\"C\": 1}, \"75\": {\"C\": 1}, \"76\": {\"N\": 1}, \"77\": {\"N\": 1}, \"78\": {\"O\": 1}, \"79\": {\"O\": 1}, \"80\": {\"O\": 1}, \"81\": {\"O\": 1}, \"82\": {\"O\": 1}, \"83\": {\"O\": 1}, \"84\": {\"O\": 1}, \"85\": {\"O\": 1}, \"86\": {\"O\": 1}, \"87\": {\"O\": 1}, \"88\": {\"O\": 1}, \"89\": {\"O\": 1}, \"90\": {\"O\": 1}, \"91\": {\"O\": 1}, \"92\": {\"O\": 1}, \"93\": {\"O\": 1}, \"94\": {\"O\": 1}, \"95\": {\"O\": 1}}" energy=-599.2149658203125 free_energy=-599.2149658203125 stress="0.0008555914973840117 -0.0012493263930082321 -0.004496585577726364 -0.0012493263930082321 0.001977696316316724 0.0007119735237210989 -0.004496585577726364 0.0007119735237210989 0.005802853032946587" pbc="T T T"
Zn       6.13874309       5.64458704       5.62315567        0      -0.03041634       0.05064625      -0.71299791
Zn       3.18467348       5.15049384       5.72973176        1       0.34085649      -0.28934646      -0.89324623
H        1.07092638       6.69560028       2.92404655        2      -0.09810793       0.27136579       0.29546651
H        1.78810104       7.60440139       4.33844707        3      -0.29857147       0.43539387      -0.24384291
H        6.85658541       7.48771407       9.48330803        4      -1.14059067       0.25103644       0.61865151
H        7.19062805       1.35786645       8.39159605        5       0.17589429      -0.26835409      -0.48000652
H        2.81281888       3.52768604       1.53891227        6      -0.14797948      -0.11580740      -0.28718615
H        2.79023926       9.39485482       4.16897091        7       0.18617599       0.08304630       0.32758063
H        2.38461476       1.65497186       0.33003603        8      -0.99500090       1.06886101      -0.98054695
H        1.82909679       1.86305680      10.04775480        9       0.31117404      -0.52000856      -0.01647363
H        0.90946218       2.86821452       0.46314049       10       1.36702907      -0.30464077      -0.61181283
H        0.91387760      10.40583333       3.67479703       11       0.56249762       0.72040504      -0.81353062
H        2.20248500      10.48850817       2.37553364       12      -0.05541378       0.26998454      -0.28386605
H        2.48471169       0.84774885       2.44588392       13       0.66176105      -0.88829410       0.13204150
H        5.27233407       8.38850785       9.69396223       14       0.05426123      -0.32506832       0.31034884
H        8.22596211       2.03662180       7.14133449       15       0.72926581       0.03283072      -0.37826553
H        8.11960181       5.92512635      10.90618514       16      -0.05508627       0.00938146       0.00594789
H        7.03171537       5.65422504       1.61943044       17      -1.07162547      -1.40592682       1.62255585
H        8.43743199       6.56927197       1.15277440       18      -0.33630693      -0.53184640      -0.34568468
H        8.66299985      10.46687926       8.59163533       19      -1.35818172       0.28458852       0.71318781
H        7.85058859       9.65930318       9.98848888       20      -0.47214082       1.09231150      -0.87368643
H        9.08562510       0.43777214       9.56502341       21      -0.40534198       0.89639270       0.31671461
H        4.95674050      10.26074410       0.19869845       22      -0.63824511      -0.39625397       0.55124742
H        6.26217589       9.97199602       1.33234566       23      -2.20636392      -0.26770324       0.23177771
H        4.59488081      10.50576147       2.00189394       24       0.10194160      -0.54222488      -0.43997547
H        8.74793471       1.17947494       5.06253313       25       0.57565320      -0.50858343      -0.30908537
H        6.92756803      10.46260314       4.44767059       26       0.36644489      -0.01407221       0.31404978
H       10.24274251       0.22187447       4.60964213       27      -0.29400158      -0.08855792       0.66887623
H        1.73617506       2.50817851       5.76042256       28       0.10050788       0.08458418      -0.03778148
H        1.17701854       1.41750824       7.02726012       29      -0.07032353      -0.44269854       0.22713588
H        2.37336702       2.70086950       7.41948838       30       1.15464425       0.48728848       0.85866439
H        7.81858758       5.50272689       9.05468521       31       0.21141316      -0.24830925      -0.04568536
H        7.53834775       3.73225353       9.28358704       32      -0.11504526      -0.10411881       1.06548321
H        9.17805313       4.32188184       9.04368393       33       3.34652758      -0.35840401       1.06359053
H        0.08075263       8.83406607       1.95797710       34      -0.11198506       0.03910735       0.42041409
H       -1.19551377       9.94752924       2.79807612       35       0.51922208      -1.20332122      -0.35803625
H        8.48974667       8.92332548       1.35379795       36       0.74113357       0.18618742       0.78504395
H       -0.03059416       9.78466439       6.60818338       37       0.30209070       0.77293873       0.62601066
H        1.03034641       8.35480545       6.26089134       38       0.80729473       0.14031854       0.06510888
H       -0.58011271       8.10789966       6.91046265       39       0.28574657       0.55095941      -0.09675051
C        4.61685496       8.01550692       5.56378352       40      -0.58397985       0.07028723       0.95852745
C        4.20091161       5.31856529       2.99115593       41       2.02695966       0.98798621       1.26985645
C        5.39957177       7.59196708       0.61433113       42       0.07819244       0.81007826       1.33224845
C        6.38269263      10.65498887       7.15722314       43       1.73120260      -0.27283469       0.53701609
C        0.46288782       5.98542800       4.91612058       44       0.20196922       0.08690429      -0.60879284
C        0.09081787       4.36809273       6.45284273       45       0.32075259       1.58557558      -1.15524888
C        8.83012070       4.81955494       6.59759236       46      -1.83305478       1.66332674      -1.83786726
C        9.23466067       6.42314363       4.95901566       47      -0.44566262      -2.98455095       2.12573361
C       -0.59235025       7.61811453       4.21887066       48      -0.65364933       2.66929102      -1.88824511
C        0.89647502       7.09024810       3.95061032       49       0.13391697      -1.43097413       0.15258552
C        5.31933897       2.86320592       5.58545675       50      -1.66933990      -2.43895674       0.22131640
C        4.32099592       5.28606750       8.22409998       51       3.40511537      -0.05728143      -2.20046353
C        4.65370555       6.31361824       0.68458576       52      -2.40600967      -3.54074335      -0.18094981
C        5.10778295      10.44010183       6.33728148       53       1.57578492      -0.39886242       1.48971426
C        3.96265482       5.32276298       1.52836443       54       1.82988250       0.41433644      -1.67111397
C        4.37688577       9.50677984       5.61900781       55       0.13054381      -0.63138658      -0.00570443
C        3.22857784       4.27252488       0.86423535       56       1.52253222       2.28215885       1.79300952
C        3.37358060      10.03874584       4.84004683       57      -1.42046309       2.07405162      -1.47301126
C        3.89899979       4.26204118      10.48682532       58       0.73574060       1.07725489       2.87290239
C        4.80329498       0.52985257       4.73310163       59       2.03995371      -2.45444679       2.13037372
C        4.46128405       5.24012914       9.70259117       60       1.40951633       1.61576080      -1.78324556
C        5.56956250       1.36571474       5.63209606       61      -1.87039506       1.93652439      -1.74177504
C        5.25704808       6.20300511      10.30269848       62      -0.39861220       0.94826263       1.59800851
C        6.53168978       0.86515311       6.43327774       63      -1.58593321      -1.76120019      -1.35486364
C        5.88202191       7.55777843      10.09019493       64       2.03012538      -0.08507705      -1.98602641
C        7.59268237       1.19195119       7.35327732       65      -0.56146592       0.69509983       2.34619427
C        2.49056070       2.36051474      10.76880886       66      -0.16544884       0.54438174       0.22194466
C        3.18053751       0.13718714       2.98332861       67      -0.46916094       1.17491829       1.92150664
C        7.37568369       6.32319190       0.91356833       68       2.23504877       2.07937694      -1.00142395
C        7.63695352      10.42351415       9.14708200       69       3.59045625      -1.89842272       0.30086064
C        5.06048124       9.83770459       1.23540686       70       3.64390039       2.74024439      -0.47598392
C        9.23683186       0.16078257       5.08126138       71      -1.03924680       0.78486943      -0.30702698
C        1.55597787       2.41367037       6.82996982       72      -2.84326053       0.85016692      -0.58137065
C        8.19591117       4.48535882       8.86810893       73      -3.49033952       0.23167168      -1.73208714
C       -0.96764640       8.94848180       2.29045485       74      -1.53656137       1.07008719      -1.20359337
C        0.03326069       8.77731106       6.24454740       75      -0.38426739      -1.51833820       2.50531125
N        1.02896233       4.97931904       5.60587120       76      -1.79819119      -0.10394882       0.95072150
N        8.27691257       5.84533208       5.75693638       77       1.38650775      -1.57379723       1.26953435
O        5.80245020       7.62777243       5.70133189       78       1.20098972      -0.06175605      -0.21622394
O        5.34253412       5.66664351       3.52896751       79      -0.84392703      -0.36491349      -1.44077969
O        3.61880422       7.21498885       5.50957919       80      -0.60141021       0.31829470      -0.11527932
O        3.20423051       5.04087285       3.69332155       81      -1.85635006      -0.82813835       0.99765265
O        6.24873922       3.59365620       5.28762193       82       3.20391870       2.31346226      -0.68637824
O        5.44962662       5.41527872       7.46559817       83      -2.71315479      -0.07013643       2.91765261
O        4.14574588       3.21844293       5.83291635       84      -1.69725609       0.82465923       0.39296079
O        3.20042771       5.14502455       7.68705071       85      -1.16697264       0.15244983       0.17042558
O        3.21154491       3.34176246       9.91260317       86      -2.87755632      -4.00819016      -0.83228892
O        3.95343437       1.08734907       3.86976837       87      -1.46278012      -0.72512925      -1.56605220
O        6.74124657       7.60850447       1.04804739       88      -1.02747524      -0.39229223      -0.81832123
O        6.69442118       9.88311119       8.29284223       89      -2.22337914       0.05156320      -1.54564357
O        4.72569477       8.52911636       1.38792475       90      -1.02688217      -1.23654771       0.04888974
O        7.58851455      10.67530171       6.43391833       91       0.94868958      -0.75505531      -0.62462115
O        0.33002022       3.31765196       7.17538372       92       2.37804461      -2.63267183       0.58864152
O        7.95566595       4.13325806       7.45738972       93       1.43142724       1.38945496      -1.41693556
O        8.63364260       7.84802471       3.07435397       94       2.06591415       0.01877248       2.48342562
O       -0.53999074       8.80189048       5.03956286       95      -1.60570407      -0.13970935      -4.15713120
96
Lattice="10.10201933 0.0 0.0 -1.6633987765899432 10.947502066537709 0.0 0.8182229885263875 -0.005332072493576255 11.010080505474775" Properties=species:S:1:pos:R:3:spacegroup_kinds:I:1:forces:R:3 spacegroup="P 1" unit_cell=conventional occupancy="_JSON {\"0\": {\"Zn\": 1}, \"1\": {\"Zn\": 1}, \"2\": {\"H\": 1}, \"3\": {\"H\": 1}, \"4\": {\"H\": 1}, \"5\": {\"H\": 1}, \"6\": {\"H\": 1}, \"7\": {\"H\": 1}, \"8\": {\"H\": 1}, \"9\": {\"H\": 1}, \"10\": {\"H\": 1}, \"11\": {\"H\": 1}, \"12\": {\"H\": 1}, \"13\": {\"H\": 1}, \"14\": {\"H\": 1}, \"15\": {\"H\": 1}, \"16\": {\"H\": 1}, \"17\": {\"H\": 1}, \"18\": {\"H\": 1}, \"19\": {\"H\": 1}, \"20\": {\"H\": 1}, \"21\": {\"H\": 1}, \"22\": {\"H\": 1}, \"23\": {\"H\": 1}, \"24\": {\"H\": 1}, \"25\": {\"H\": 1}, \"26\": {\"H\": 1}, \"27\": {\"H\": 1}, \"28\": {\"H\": 1}, \"29\": {\"H\": 1}, \"30\": {\"H\": 1}, \"31\": {\"H\": 1}, \"32\": {\"H\": 1}, \"33\": {\"H\": 1}, \"34\": {\"H\": 1}, \"35\": {\"H\": 1}, \"36\": {\"H\": 1}, \"37\": {\"H\": 1}, \"38\": {\"H\": 1}, \"39\": {\"H\": 1}, \"40\": {\"C\": 1}, \"41\": {\"C\": 1}, \"42\": {\"C\": 1}, \"43\": {\"C\": 1}, \"44\": {\"C\": 1}, \"45\": {\"C\": 1}, \"46\": {\"C\": 1}, \"47\": {\"C\": 1}, \"48\": {\"C\": 1}, \"49\": {\"C\": 1}, \"50\": {\"C\": 1}, \"51\": {\"C\": 1}, \"52\": {\"C\": 1}, \"53\": {\"C\": 1}, \"54\": {\"C\": 1}, \"55\": {\"C\": 1}, \"56\": {\"C\": 1}, \"57\": {\"C\": 1}, \"58\": {\"C\": 1}, \"59\": {\"C\": 1}, \"60\": {\"C\": 1}, \"61\": {\"C\": 1}, \"62\": {\"C\": 1}, \"63\": {\"C\": 1}, \"64\": {\"C\": 1}, \"65\": {\"C\": 1}, \"66\": {\"C\": 1}, \"67\": {\"C\": 1}, \"68\": {\"C\": 1}, \"69\": {\"C\": 1}, \"70\": {\"C\": 1}, \"71\": {\"C\": 1}, \"72\": {\"C\": 1}, \"73\": {\"C\": 1}, \"74\": {\"C\": 1}, \"75\": {\"C\": 1}, \"76\": {\"N\": 1}, \"77\": {\"N\": 1}, \"78\": {\"O\": 1}, \"79\": {\"O\": 1}, \"80\": {\"O\": 1}, \"81\": {\"O\": 1}, \"82\": {\"O\": 1}, \"83\": {\"O\": 1}, \"84\": {\"O\": 1}, \"85\": {\"O\": 1}, \"86\": {\"O\": 1}, \"87\": {\"O\": 1}, \"88\": {\"O\": 1}, \"89\": {\"O\": 1}, \"90\": {\"O\": 1}, \"91\": {\"O\": 1}, \"92\": {\"O\": 1}, \"93\": {\"O\": 1}, \"94\": {\"O\": 1}, \"95\": {\"O\": 1}}" energy=-597.0496215820312 free_energy=-597.0496215820312 stress="-0.002761205192655325 0.0013988682767376304 -0.004789752420037985 0.0013988682767376304 0.0011991295032203197 0.004682160448282957 -0.004789752420037985 0.004682160448282957 -0.004674795549362898" pbc="T T T"
Zn       6.13162131       5.65247534       5.63860464        0       0.17516223      -0.32227403      -0.87357503
Zn       3.23193025       5.18394029       5.74865531        1       0.22324973      -0.59432399      -0.79559183
H        1.06914177       6.67229792       2.94173723        2       0.09760837       0.16045249       0.38612574
H        1.80104210       7.59583269       4.36174031        3      -0.36318880       0.28637445      -0.39887008
H        6.86424907       7.45909946       9.45461190        4      -0.84502113       0.50543576       0.47792852
H        7.24002410       1.31795804       8.36275626        5      -0.65723962       0.06012963       1.14685738