84
Lattice="8.1193315 0.0 0.0 -0.2800138021943057 10.190969963981733 0.0 -0.28002948156224206 -1.6591696404979857 10.054974890597217" Properties=species:S:1:pos:R:3:spacegroup_kinds:I:1:forces:R:3 spacegroup="P 1" unit_cell=conventional occupancy="_JSON {\"0\": {\"Zn\": 1}, \"1\": {\"Zn\": 1}, \"2\": {\"H\": 1}, \"3\": {\"H\": 1}, \"4\": {\"H\": 1}, \"5\": {\"H\": 1}, \"6\": {\"H\": 1}, \"7\": {\"H\": 1}, \"8\": {\"H\": 1}, \"9\": {\"H\": 1}, \"10\": {\"H\": 1}, \"11\": {\"H\": 1}, \"12\": {\"H\": 1}, \"13\": {\"H\": 1}, \"14\": {\"H\": 1}, \"15\": {\"H\": 1}, \"16\": {\"H\": 1}, \"17\": {\"H\": 1}, \"18\": {\"H\": 1}, \"19\": {\"H\": 1}, \"20\": {\"H\": 1}, \"21\": {\"H\": 1}, \"22\": {\"H\": 1}, \"23\": {\"H\": 1}, \"24\": {\"H\": 1}, \"25\": {\"H\": 1}, \"26\": {\"H\": 1}, \"27\": {\"H\": 1}, \"28\": {\"H\": 1}, \"29\": {\"H\": 1}, \"30\": {\"C\": 1}, \"31\": {\"C\": 1}, \"32\": {\"C\": 1}, \"33\": {\"C\": 1}, \"34\": {\"C\": 1}, \"35\": {\"C\": 1}, \"36\": {\"C\": 1}, \"37\": {\"C\": 1}, \"38\": {\"C\": 1}, \"39\": {\"C\": 1}, \"40\": {\"C\": 1}, \"41\": {\"C\": 1}, \"42\": {\"C\": 1}, \"43\": {\"C\": 1}, \"44\": {\"C\": 1}, \"45\": {\"C\": 1}, \"46\": {\"C\": 1}, \"47\": {\"C\": 1}, \"48\": {\"C\": 1}, \"49\": {\"C\": 1}, \"50\": {\"C\": 1}, \"51\": {\"C\": 1}, \"52\": {\"C\": 1}, \"53\": {\"C\": 1}, \"54\": {\"C\": 1}, \"55\": {\"C\": 1}, \"56\": {\"C\": 1}, \"57\": {\"C\": 1}, \"58\": {\"C\": 1}, \"59\": {\"C\": 1}, \"60\": {\"C\": 1}, \"61\": {\"C\": 1}, \"62\": {\"N\": 1}, \"63\": {\"N\": 1}, \"64\": {\"N\": 1}, \"65\": {\"N\": 1}, \"66\": {\"N\": 1}, \"67\": {\"N\": 1}, \"68\": {\"N\": 1}, \"69\": {\"N\": 1}, \"70\": {\"N\": 1}, \"71\": {\"N\": 1}, \"72\": {\"N\": 1}, \"73\": {\"N\": 1}, \"74\": {\"O\": 1}, \"75\": {\"O\": 1}, \"76\": {\"O\": 1}, \"77\": {\"O\": 1}, \"78\": {\"O\": 1}, \"79\": {\"O\": 1}, \"80\": {\"O\": 1}, \"81\": {\"O\": 1}, \"82\": {\"O\": 1}, \"83\": {\"O\": 1}}" energy=-565.4099731445312 free_energy=-565.4099731445312 stress="-0.009898999705910683 -0.0034391849767416716 -0.002793715801090002 -0.0034391849767416716 -0.010844641365110874 0.007321094162762165 -0.002793715801090002 0.007321094162762165 -0.004100031219422817" pbc="T T T"
Zn       1.77341877       2.70283513       6.35813199        0      -0.35115671       0.03143460      -0.09349696
Zn       5.80538252       5.81519335       3.67994115        1       0.08188052       0.12227575      -0.03125587
H        2.36036719       4.25926284       4.23557163        2      -0.32346475       0.34451073       0.18199253
H        1.16207067       5.04696020       5.16207297        3       0.37113369      -0.20961288      -0.40732715
H        5.20420293       4.22582043       5.79753115        4       0.97625726       0.22774236      -1.33930755
H        6.39429248       3.51520577       4.90067966        5       0.55180556      -0.66344470      -0.08774236
H        4.80806316       3.28093653       9.95117513        6      -0.18584532      -0.09242951      -0.59813821
H        6.79272814      -0.78063341       5.22948066        7       0.16064706      -0.13634756      -0.16761686
H        2.73698431       5.23374284       0.09003028        8       0.18539293       0.24427286       0.97909021
H        0.75006305       9.30591396       4.82575145        9      -0.15824264       0.05421804       0.27938336
H        5.11941830       1.86646285       8.94759053       10      -0.00565214      -0.76533180      -0.14450178
H        6.45158820       0.03566750       6.78294990       11       0.08506495       0.10176342      -0.33098260
H        2.42496218       6.69164668       1.13016159       12       0.15988861      -0.77861154       0.11187191
H        1.07490884       8.49132396       3.27573755       13      -0.15804377      -0.12923911       0.70539689
H        1.90948809       5.77692993       7.88127399       14       1.24415553       0.08058021      -0.81442350
H        1.57756080       1.69201975       3.09540170       15      -0.78031498       0.43518072      -0.08361063
H        5.64154505       2.77738565       2.17226847       16      -0.14500117      -0.08207324       0.20167437
H        5.99322477       6.83185314       6.96742868       17      -0.57694459       0.06776410      -0.19264956
H        1.32814166       7.52435691       9.51303766       18       0.88161081       1.32129097       0.39478427
H        2.18714685       0.41800478       1.04162854       19       0.34295872      -0.18296674       0.33272028
H        6.22996629       0.95624999       0.58081053       20       0.52492052       0.56195736      -0.09070063
H        5.40676568       8.16472048       8.99624513       21       0.21989922      -0.04102700       0.19159985
H        7.66025880       9.11465742       0.77148816       22       0.01300850      -0.84086847      -0.63889277
H        3.99325601       9.25850463       0.94243260       23      -0.13167715       0.09700222      -0.08547746
H       -0.11761526      -0.58341231       9.29184469       24       0.24723315       0.08116089      -0.09849267
H        3.56657055      -0.67118607       9.09546935       25       0.44754529      -0.81036091      -0.98783457
H        6.03329668       7.19781113       0.50558706       26      -0.22032619       0.21130733       0.16653131
H        5.63305220       9.19819619       2.83092520       27      -0.73102868       0.58609438       0.01968145
H        1.53546978       1.30234990       9.55850205       28       0.32217932       0.04624250      -0.00893679
H        1.96380318      -0.67563717       7.17450740       29      -0.14568728       0.00659330       0.34057698
C        3.96261706       3.40204241       7.91708003       30       0.72956204      -3.19663954       3.81858587
C        7.62831710       1.22407100       5.39599834       31       0.74451673       0.20127043       0.81292665
C        3.55261544       5.12251566       2.13739588       32       1.82597506       2.82533288      -1.82215464
C       -0.08558152       7.27823493       4.64994644       33       0.80832928       1.22598934      -0.76723707
C        5.06294345       2.93956295       8.91338301       34      -0.04625315       1.19189000       1.02385640
C        6.53274710       0.17606137       5.68714575       35      -0.11343987       0.64962554      -0.23963450
C        2.49474487       5.56842635       1.14864559       36      -0.25639167       0.19356282      -1.52665102
C        0.99484227       8.33620521       4.38669986       37       0.76296866      -0.12106220      -0.85952932
C        6.99530221       4.65269539       9.03227731       38       0.16662872      -0.79739118      -0.85634291
C        4.64426389       0.40583471       3.99716577       39      -0.82442653      -0.11229008      -1.23135781
C        0.55357299       3.88945370       1.04584061       40       0.49472070      -0.37406749      -0.66498947
C        2.92067554       8.13153300       6.03146979       41       1.00999260       0.49479729       1.53298104
C        0.07677264       4.66080479       8.25873408       42       0.30400139       2.29634809       1.74488115
C        3.41711778       1.10771735       4.07347809       43      -0.79263800       0.50798285       0.53629005
C        7.45945861       3.88770383       1.76578429       44       0.26115814      -1.36978114      -0.83850741
C        4.17092446       7.44542541       5.94041381       45      -1.74079633      -0.24620304      -1.10777068
C        1.00677366       5.75177152       8.41550010       46      -2.04189849      -0.69883573       1.19259834
C        2.48609844       1.14548200       3.01433566       47       1.77724099      -0.80495870       0.64649630
C        6.58114524       2.80714528       1.63497065       48       0.02708595      -0.45928639      -0.93381619
C        5.02384071       7.36848688       6.99333766       49       2.03863573       0.71760517       2.51897454
C        0.67234361       6.72245057       9.37663938       50      -1.40826750      -2.19871855      -1.08605337
C        2.86980386       0.38284089       1.91302187       51      -1.81793451       0.87832719      -1.05622697
C        6.92465848       1.82046758       0.68223622       52      -0.97768724       0.05764112       1.04113817
C        4.73512630       8.15268498       8.15338699       53      -0.70261174      -0.70850873      -1.59416449
C        7.83728998       8.28111598       0.02834494       54       1.97025704       3.48609400       1.44321704
C        3.76336755       9.86018506       1.82334880       55       1.53581762      -0.83018041       0.55569029
C       -0.28434944       0.22519915      10.00414547       56      -0.20863831      -0.64789850      -0.20403230
C        3.80810139      -1.31389246       8.18155242       57       0.00695026       1.24015617       2.40479565
C        6.64880218       5.64609087       9.96115196       58      -1.00094843      -2.12428951      -0.70614076
C        4.98998092      -0.35863710       2.87356276       59       0.18861660      -0.34360221      -0.28075263
C        0.92965776       2.89648786       0.11981706       60      -0.53921258       0.49161422       0.24324512
C        2.57076171       8.88823532       7.19536393       61       0.13306257      -0.70772922      -2.26614070
N        6.39344385       3.45958682       8.63228312       62      -0.18558615      -0.47733209      -0.59153658
N        5.22099759       0.62381911       5.19229351       63       1.42585802      -0.16559325       2.50617790
N        1.16022195       5.05707867       1.43526701       64       0.92020452       0.94261634       0.58129317
N        2.34964999       7.90634361       4.82294504       65      -2.62940407       0.90265882      -0.79059905
N        7.16319835       2.84869704       7.67510595       66      -1.79271173      -0.61044675       1.25580215
N        4.44301537       1.39326550       6.00094656       67       0.96884495      -0.66596615      -0.24319550
N        0.44034915       5.67894493       2.38111087       68      -0.44479468      -0.36606443      -0.64560825
N        3.06004737       7.11195271       4.05533960       69       1.10863352      -0.19663155       0.19003117
N        0.10636279       3.54064424       7.53258143       70       2.24106455      -0.20624232      -1.92708719
N        3.35961688       1.67000122       5.35060639       71      -1.12584174       0.42036098      -0.97277057
N        7.43945447       4.98186110       2.52087386       72      -0.76659012       1.61750960       1.82622814
N        4.18972704       6.83628583       4.71093778       73       0.44527134      -0.50134867      -0.58212101
O        4.21415691       4.27461965       7.14673540       74       0.38562271       3.44604564      -3.26204252
O        7.43100386       2.23246093       4.66073115       75       0.22376207      -0.94400609       0.14718500
O        3.36064826       4.25048643       2.96028089       76      -0.13039939      -1.87965012       1.33176363
O        0.17423242       6.32809647       5.39473924       77      -0.23058596      -1.01999283       1.04194260
O        1.75996746       4.25008001       5.03379907       78      -0.11215717      -0.30504176       0.47973803
O        5.82728465       4.30251102       4.96819509       79      -1.62522876       0.37886485       1.65548265
O        2.86213559       2.76977108       8.10662326       80      -0.87325495      -0.20540449      -0.49650121
O        0.63597385       0.98923490       6.04151216       81      -0.90760738       0.28677940      -0.69550055
O        4.70154005       5.81005936       1.99499596       82      -1.46573782      -1.01330757       0.07561899
O        6.94797448       7.49302469       4.00943173       83      -0.64593291      -0.04368073      -0.06239282
84
Lattice="8.1193315 0.0 0.0 -0.2800138021943057 10.190969963981733 0.0 -0.28002948156224206 -1.6591696404979857 10.054974890597217" Properties=species:S:1:pos:R:3:spacegroup_kinds:I:1:forces:R:3 spacegroup="P 1" unit_cell=conventional occupancy="_JSON {\"0\": {\"Zn\": 1}, \"1\": {\"Zn\": 1}, \"2\": {\"H\": 1}, \"3\": {\"H\": 1}, \"4\": {\"H\": 1}, \"5\": {\"H\": 1}, \"6\": {\"H\": 1}, \"7\": {\"H\": 1}, \"8\": {\"H\": 1}, \"9\": {\"H\": 1}, \"10\": {\"H\": 1}, \"11\": {\"H\": 1}, \"12\": {\"H\": 1}, \"13\": {\"H\": 1}, \"14\": {\"H\": 1}, \"15\": {\"H\": 1}, \"16\": {\"H\": 1}, \"17\": {\"H\": 1}, \"18\": {\"H\": 1}, \"19\": {\"H\": 1}, \"20\": {\"H\": 1}, \"21\": {\"H\": 1}, \"22\": {\"H\": 1}, \"23\": {\"H\": 1}, \"24\": {\"H\": 1}, \"25\": {\"H\": 1}, \"26\": {\"H\": 1}, \"27\": {\"H\": 1}, \"28\": {\"H\": 1}, \"29\": {\"H\": 1}, \"30\": {\"C\": 1}, \"31\": {\"C\": 1}, \"32\": {\"C\": 1}, \"33\": {\"C\": 1}, \"34\": {\"C\": 1}, \"35\": {\"C\": 1}, \"36\": {\"C\": 1}, \"37\": {\"C\": 1}, \"38\": {\"C\": 1}, \"39\": {\"C\": 1}, \"40\": {\"C\": 1}, \"41\": {\"C\": 1}, \"42\": {\"C\": 1}, \"43\": {\"C\": 1}, \"44\": {\"C\": 1}, \"45\": {\"C\": 1}, \"46\": {\"C\": 1}, \"47\": {\"C\": 1}, \"48\": {\"C\": 1}, \"49\": {\"C\": 1}, \"50\": {\"C\": 1}, \"51\": {\"C\": 1}, \"52\": {\"C\": 1}, \"53\": {\"C\": 1}, \"54\": {\"C\": 1}, \"55\": {\"C\": 1}, \"56\": {\"C\": 1}, \"57\": {\"C\": 1}, \"58\": {\"C\": 1}, \"59\": {\"C\": 1}, \"60\": {\"C\": 1}, \"61\": {\"C\": 1}, \"62\": {\"N\": 1}, \"63\": {\"N\": 1}, \"64\": {\"N\": 1}, \"65\": {\"N\": 1}, \"66\": {\"N\": 1}, \"67\": {\"N\": 1}, \"68\": {\"N\": 1}, \"69\": {\"N\": 1}, \"70\": {\"N\": 1}, \"71\": {\"N\": 1}, \"72\": {\"N\": 1}, \"73\": {\"N\": 1}, \"74\": {\"O\": 1}, \"75\": {\"O\": 1}, \"76\": {\"O\": 1}, \"77\": {\"O\": 1}, \"78\": {\"O\": 1}, \"79\": {\"O\": 1}, \"80\": {\"O\": 1}, \"81\": {\"O\": 1}, \"82\": {\"O\": 1}, \"83\": {\"O\": 1}}" energy=-564.3154907226562 free_energy=-564.3154907226562 stress="-0.008465978316962719 -0.01042155921459198 -1.7823203961597756e-05 -0.01042155921459198 -0.010676846839487553 0.009088999591767788 -1.7823203961597756e-05 0.009088999591767788 -0.002836452331393957" pbc="T T T"
Zn       1.77963552       2.67982951       6.35635995        0      -0.40446460       0.49012625      -0.04870792
Zn       5.82938644       5.82756576       3.70389682        1      -0.24809091      -0.03893055      -0.30745518
H        2.38678849       4.24455462       4.22372988        2      -0.86218429       0.48250905       0.73227441
H        1.16514900       5.06494327       5.18461015        3       0.62243891      -0.44923204      -0.61379975
H        5.20434248       4.22490194       5.77252244        4      -0.15099344       0.07401437       0.19391941
H        6.42215240       3.51093106       4.89428280        5      -0.82925272       1.08871925       0.20822999
H        4.78733959       3.27895848       9.96797030        6      -0.03860354      -0.08404857      -1.33520484
H        6.76770463      -0.76878126       5.24293738        7       0.50743026      -0.98480773      -0.59750974
H        2.70826273       5.25014322       0.11653559        8       0.67180884      -0.31109184      -0.61924142
H        0.72057230       9.28744852       4.80192333        9      -0.09223290       0.19390039       0.45242035
H        5.10895373       1.88200379       8.95013291       10      -0.06369264      -0.42227060      -0.19920166
H        6.44674027       0.01785325       6.80396520       11       0.31246561       0.22005334      -0.69430161
H        2.44221505       6.69818367       1.12783862       12      -0.00869252      -1.49592757       0.15016279
H        1.07678759       8.47324024       3.30068090       13      -0.15014489      -0.12465425       0.12275529
H        1.91635027       5.79189133       7.90650062       14       2.13009405       0.01245290      -1.34882545
H        1.58198876       1.67936050       3.10520866       15      -1.21548378       0.82319301       0.13681297
H        5.64644122       2.79679463       2.18204513       16       0.39054820      -0.26977399      -0.20255616
H        6.00132139       6.84740971       6.94101352       17      -0.70917821       0.00538336      -0.16707188
H        1.30496591       7.51204961       9.53073799       18       1.38712215       1.77561855       0.43750632
H        2.17190006       0.44439164       1.02643571       19       0.34470135      -0.19589069       0.45023978
H        6.24515524       0.98336545       0.57432196       20      -0.28842187      -0.39845648      -0.18938296
H        5.42655807       8.19457243       8.97597129       21       0.57614970      -0.15694571       0.46643201
H        7.68370230       9.14026105       0.75146922       22      -0.06747556      -0.98702526      -0.80777705
H        4.01188209       9.26148597       0.92919083       23      -0.16954932       0.16413081      -0.07836682
H       -0.11048257      -0.59155367       9.26683642       24       0.26520759       0.60329032       0.24264413
H        3.58365313      -0.65266880       9.10282398       25       0.61340678      -0.98108184      -1.05242789
H        6.02244748       7.20541733       0.50151547       26      -0.90136445       0.10028484       0.64959562
H        5.61026776       9.22596224       2.80307824       27       0.52738047      -0.26294544      -0.06429930
H        1.52666612       1.28034684       9.57607335       28       0.79141116       0.40372288      -0.05908090
H        1.99205670      -0.64637545       7.17544481       29      -0.25414944       0.08857398       0.50614393
C        3.95925076       3.39628727       7.90118401       30       1.98219693      -2.37383986       3.95737505
C        7.65252578       1.24538300       5.38202382       31       0.19843543      -1.44410241       1.89302588
C        3.54550538       5.09360774       2.14442698       32       1.80825555       4.46397972      -3.35620642
C       -0.05789390       7.27707683       4.65560678       33      -0.37975085      -0.56745648      -0.30484605
C        5.05090495       2.96737751       8.88966618       34       0.01611694       0.08301818       2.43636513
C        6.55546665       0.16859725       5.69772438       35      -0.47571969       1.68486476       0.52490342
C        2.47227356       5.54137539       1.12680709       36       0.59927452       1.38025427       0.14553916
C        0.99161237       8.31825267       4.39067468       37       0.84568536      -0.00342259      -0.57005119
C        7.00199301       4.63570892       9.00774551       38      -0.72061753       0.85301197       0.84652430
C        4.65243706       0.38007340       3.99738616       39      -0.57037079       0.62168598      -0.37976158
C        0.53016409       3.86479637       1.04980343       40       1.55062926       1.98891044       0.38341308
C        2.91494810       8.15716137       6.04777455       41       1.25553620      -0.46054286       0.44415843
C        0.08548372       4.68815573       8.22982734       42      -0.84191686       1.47378242       2.38818502
C        3.42822243       1.09344055       4.04998732       43      -0.51593554       1.15729451       2.68666315
C        7.46089533       3.91405482       1.77492464       44      -0.59913296      -3.37240863      -1.29674768
C        4.15898217       7.44987484       5.92388131       45      -1.29958320      -0.41574195      -0.30904567
C        1.02284892       5.73983238       8.40793200       46      -2.65047860      -0.01163960       1.79004097
C        2.48710757       1.15471577       3.03854462       47       1.82954347      -1.60065222      -0.99695814
C        6.59525972       2.78437143       1.61244711       48      -1.04391205       1.62982559       1.06332183
C        5.01553654       7.36005415       6.98689450       49       2.18336487       0.78926879       2.06685734
C        0.67924279       6.71034654       9.37059848       50      -2.00538206      -2.63949966      -1.19939995
C        2.84347575       0.39789988       1.90712978       51      -0.15065402       0.16595405      -0.76429206
C        6.90095884       1.82533293       0.69254311       52       1.80327463       0.05142522      -0.90446603
C        4.75787778       8.14868571       8.14739350       53      -1.25872004      -0.54915214      -1.77113724
C        7.83149523       8.29338361       0.00281735       54       1.28079677       2.73319244       1.69036734
C        3.78269119       9.86360167       1.81193519       55      -0.20221971       0.00973240       0.38600686
C       -0.26094033       0.23954227       9.98411050       56      -1.50658333      -0.98969126       0.54477882
C        3.83188715      -1.31661130       8.19554077       57      -0.22742929       1.51154864       2.35579038
C        6.62092911       5.64819319       9.97511851       58       1.13519490      -2.17022848      -2.38839030
C        5.00563059      -0.36022618       2.85399809       59      -0.93295825       0.50667131       0.24726780
C        0.93997345       2.92217301       0.14731807       60      -1.09972310      -1.73420453      -1.07494831
C        2.58349577       8.90293172       7.21856081       61       0.16914216      -0.76220453      -2.42773485
N        6.38999615       3.44159778       8.65006743       62       0.34843028       0.03460614      -1.12678778
N        5.24982861       0.64222040       5.21439583       63      -0.06405139      -0.51263130       1.14020014
N        1.18412107       5.03219259       1.42310419       64      -1.57737601       1.37511611       1.68299735
N        2.33367889       7.88852497       4.83335891       65      -1.87497795       1.21692646      -0.63407946
N        7.17570232       2.84696705       7.66728295       66      -2.78437662      -1.06613493       1.73047864
N        4.44949327       1.37595967       6.02049125       67      -0.10270541       0.04483313      -0.74981868
N        0.44114224       5.70556957       2.37446516       68      -0.31111929      -1.57481790      -1.12652004
N        3.06464771       7.12105656       4.04113070       69       0.72607756      -0.26775959       0.65241849
N        0.08059620       3.55159316       7.54687392       70       4.10108471      -0.37180334      -3.25952554
N        3.33404148       1.69862771       5.36434655       71       1.32134914      -1.32229257      -1.66097653
N        7.42901471       4.96994447       2.54828964       72       0.37519327       2.65223932       1.39264274
N        4.18618838       6.80971662       4.70533829       73      -0.04774310       0.40681791      -0.28528443
O        4.23090956       4.28094253       7.16010932       74       0.41576204       4.06417179      -3.83832741
O        7.40432176       2.20724972       4.64037764       75       0.37062663       0.25314537      -0.52352268
O        3.33843182       4.25994733       2.96933197       76      -0.32115716      -3.23895144       2.56696749
O        0.20339725       6.30175299       5.42104620       77      -0.75167680       0.68330353      -0.15157893
O        1.73103574       4.23916550       5.00580675       78       0.14468838      -0.38302702       0.27639225
O        5.79847459       4.32703848       4.99404018       79       1.07070613      -1.42315245      -0.23085177
O        2.88510697       2.78578234       8.09203910       80      -2.58863974      -1.20798302      -0.33462590
O        0.63731026       1.01653596       6.06456172       81      -0.83656234       0.40285626      -0.97687733
O        4.67412553       5.81104540       2.00835319       82      -1.11019540      -1.14649749       0.20046374
O        6.95184527       7.46706295       3.99257118       83       0.63411456       0.00850956       0.78569180
84
Lattice="8.1193315 0.0 0.0 -0.2800138021943057 10.190969963981733 0.0 -0.28002948156224206 -1.6591696404979857 10.054974890597217" Properties=species:S:1:pos:R:3:spacegroup_kinds:I:1:forces:R:3 spacegroup="P 1" unit_cell=conventional occupancy="_JSON {\"0\": {\"Zn\": 1}, \"1\": {\"Zn\": 1}, \"2\": {\"H\": 1}, \"3\": {\"H\": 1}, \"4\": {\"H\": 1}, \"5\": {\"H\": 1}, \"6\": {\"H\": 1}, \"7\": {\"H\": 1}, \"8\": {\"H\": 1}, \"9\": {\"H\": 1}, \"10\": {\"H\": 1}, \"11\": {\"H\": 1}, \"12\": {\"H\": 1}, \"13\": {\"H\": 1}, \"14\": {\"H\": 1}, \"15\": {\"H\": 1}, \"16\": {\"H\": 1}, \"17\": {\"H\": 1}, \"18\": {\"H\": 1}, \"19\": {\"H\": 1}, \"20\": {\"H\": 1}, \"21\": {\"H\": 1}, \"22\": {\"H\": 1}, \"23\": {\"H\": 1}, \"24\": {\"H\": 1}, \"25\": {\"H\": 1}, \"26\": {\"H\": 1}, \"27\": {\"H\": 1}, \"28\": {\"H\": 1}, \"29\": {\"H\": 1}, \"30\": {\"C\": 1}, \"31\": {\"C\": 1}, \"32\": {\"C\": 1}, \"33\": {\"C\": 1}, \"34\": {\"C\": 1}, \"35\": {\"C\": 1}, \"36\": {\"C\": 1}, \"37\": {\"C\": 1}, \"38\": {\"C\": 1}, \"39\": {\"C\": 1}, \"40\": {\"C\": 1}, \"41\": {\"C\": 1}, \"42\": {\"C\": 1}, \"43\": {\"C\": 1}, \"44\": {\"C\": 1}, \"45\": {\"C\": 1}, \"46\": {\"C\": 1}, \"47\": {\"C\": 1}, \"48\": {\"C\": 1}, \"49\": {\"C\": 1}, \"50\": {\"C\": 1}, \"51\": {\"C\": 1}, \"52\": {\"C\": 1}, \"53\": {\"C\": 1}, \"54\": {\"C\": 1}, \"55\": {\"C\": 1}, \"56\": {\"C\": 1}, \"57\": {\"C\": 1}, \"58\": {\"C\": 1}, \"59\": {\"C\": 1}, \"60\": {\"C\": 1}, \"61\": {\"C\": 1}, \"62\": {\"N\": 1}, \"63\": {\"N\": 1}, \"64\": {\"N\": 1}, \"65\": {\"N\": 1}, \"66\": {\"N\": 1}, \"67\": {\"N\": 1}, \"68\": {\"N\": 1}, \"69\": {\"N\": 1}, \"70\": {\"N\": 1}, \"71\": {\"N\": 1}, \"72\": {\"N\": 1}, \"73\": {\"N\": 1}, \"74\": {\"O\": 1}, \"75\": {\"O\": 1}, \"76\": {\"O\": 1}, \"77\": {\"O\": 1}, \"78\": {\"O\": 1}, \"79\": {\"O\": 1}, \"80\": {\"O\": 1}, \"81\": {\"O\": 1}, \"82\": {\"O\": 1}, \"83\": {\"O\": 1}}" energy=-563.1370849609375 free_energy=-563.1370849609375 stress="-0.014174074865877628 -0.011756890453398228 0.0004371718387119472 -0.011756890453398228 -0.01447982992976904 0.011098075658082962 0.0004371718387119472 0.011098075658082962 -0.00614691898226738" pbc="T T T"
Zn       1.77695515       2.70620748       6.32808262        0      -0.32173342       0.16312581       0.32485780
Zn       5.85789386       5.83865031       3.68391167        1      -0.45982027      -0.22602189      -0.10096438
H        2.36149815       4.24849202       4.19677952        2      -0.82419610       0.38437450       0.82730597
H        1.17294050       5.04102078       5.18972660        3       0.42876104      -0.20340712      -0.56775582
H        5.21274892       4.19969358       5.74638440        4      -1.58850050      -0.34397745       2.17246532
H        6.44286325       3.52368931       4.87030578        5      -1.04088199       0.93756056       0.50004858
H        4.77536620       3.29943870       9.95497628        6      -0.00808967      -0.25933439      -1.01511908
H        6.73858242      -0.76502674       5.24814231        7       0.48148811      -0.99517596      -0.75148094
H        2.72010720       5.22927421       0.11873578        8       0.69881749      -0.36710542      -1.13810015
H        0.69379543       9.27416694       4.81659725        9       0.25719064      -0.01024173       0.24380541
H        5.08335071       1.89357818       8.92804210       10       0.03011170      -1.45301819      -0.00330796
H        6.47091816       0.00805002       6.81926430       11       0.27902555       0.47675580      -1.59345579
H        2.45769017       6.69042622       1.12888262       12      -0.03289617      -1.34500110      -0.00565974
H        1.09742539       8.46368384       3.28338878       13      -0.29051882      -0.08081674       0.39843106
H        1.90665249       5.80263638       7.87788855       14       3.29961157       0.03359314      -2.08071613
H        1.57556998       1.66208414       3.12959386       15      -1.57025886       1.01612318       0.17714521
H        5.66382132       2.79920752       2.18485983       16       0.14064436      -0.34403926      -0.21814723
H        6.01014382       6.83966354       6.94838958       17      -0.21359938      -0.21601978      -0.19672097
H        1.32630461       7.49293944       9.51114400       18       2.14104605       2.69387102       0.64093256
H        2.18718726       0.42772213       1.05167993       19      -0.00367255      -0.13196109       0.24393079
H        6.27344420       0.96019895       0.59590563       20       0.28864759       0.59465390       0.00236086
H        5.45388624       8.20064446       8.94722864       21      -0.23653941      -0.08945641      -0.12127014
H        7.69987603       9.11434836       0.76463636       22      -0.09504969      -0.36456215      -0.42024064
H        4.04014590       9.28249053       0.94264388       23      -0.22994374      -0.17790402      -0.81427723
H       -0.13901057      -0.61703410       9.23874711       24       0.13566065       0.85413116       0.66832805
H        3.55419041      -0.64398003       9.08182866       25       0.81885582      -1.00517082      -0.86783588
H        6.02342080       7.20799850       0.50474446       26      -0.39975959       0.19590804       0.34987494
H        5.61327992       9.25170022       2.81169138       27       0.45004046      -0.27873057      -0.22012621
H        1.50377344       1.29830169       9.57735022       28       1.36511266       0.21276657      -0.62764788
H        2.02065764      -0.62623785       7.17537289       29      -0.38003206       0.25050801       0.61268890
C        3.97066186       3.39934833       7.92790355       30       1.64138246      -2.14583969       3.23084068
C        7.65041210       1.21860617       5.36613844       31       0.63784397       0.36214545       1.15736926
C        3.56912947       5.09585579       2.13191875       32       0.54086316       5.09147644      -4.85224628
C       -0.05455510       7.27121595       4.67023302       33      -0.63154674       1.42148292      -2.02894664
C        5.05138799       2.95129788       8.90275897       34      -0.14377972       1.24272370       2.08411765
C        6.54138216       0.19122928       5.66944920       35       0.22804171       0.88313568       2.20183539
C        2.47979823       5.54126907       1.10564790       36       0.28887361       1.34619761       0.92771369