64
Lattice="7.66913321 0.0 0.0 1.4588158873853376 8.52435721633239 0.0 2.0419408642135806 1.4846546274884325 10.213174596348404" Properties=species:S:1:pos:R:3:spacegroup_kinds:I:1:forces:R:3 spacegroup="P 1" unit_cell=conventional occupancy="_JSON {\"0\": {\"Cu\": 1}, \"1\": {\"Cu\": 1}, \"2\": {\"Cu\": 1}, \"3\": {\"Cu\": 1}, \"4\": {\"Cu\": 1}, \"5\": {\"Cu\": 1}, \"6\": {\"Cu\": 1}, \"7\": {\"Cu\": 1}, \"8\": {\"H\": 1}, \"9\": {\"H\": 1}, \"10\": {\"H\": 1}, \"11\": {\"H\": 1}, \"12\": {\"H\": 1}, \"13\": {\"H\": 1}, \"14\": {\"H\": 1}, \"15\": {\"H\": 1}, \"16\": {\"H\": 1}, \"17\": {\"H\": 1}, \"18\": {\"H\": 1}, \"19\": {\"H\": 1}, \"20\": {\"H\": 1}, \"21\": {\"H\": 1}, \"22\": {\"H\": 1}, \"23\": {\"H\": 1}, \"24\": {\"C\": 1}, \"25\": {\"C\": 1}, \"26\": {\"C\": 1}, \"27\": {\"C\": 1}, \"28\": {\"C\": 1}, \"29\": {\"C\": 1}, \"30\": {\"C\": 1}, \"31\": {\"C\": 1}, \"32\": {\"C\": 1}, \"33\": {\"C\": 1}, \"34\": {\"C\": 1}, \"35\": {\"C\": 1}, \"36\": {\"C\": 1}, \"37\": {\"C\": 1}, \"38\": {\"C\": 1}, \"39\": {\"C\": 1}, \"40\": {\"N\": 1}, \"41\": {\"N\": 1}, \"42\": {\"N\": 1}, \"43\": {\"N\": 1}, \"44\": {\"N\": 1}, \"45\": {\"N\": 1}, \"46\": {\"N\": 1}, \"47\": {\"N\": 1}, \"48\": {\"N\": 1}, \"49\": {\"N\": 1}, \"50\": {\"N\": 1}, \"51\": {\"N\": 1}, \"52\": {\"N\": 1}, \"53\": {\"N\": 1}, \"54\": {\"N\": 1}, \"55\": {\"N\": 1}, \"56\": {\"N\": 1}, \"57\": {\"N\": 1}, \"58\": {\"N\": 1}, \"59\": {\"N\": 1}, \"60\": {\"N\": 1}, \"61\": {\"N\": 1}, \"62\": {\"N\": 1}, \"63\": {\"N\": 1}}" energy=-430.9929504394531 free_energy=-430.9929504394531 stress="-0.004020693711936474 -0.0026481396052986383 0.0003271325840614736 -0.0026481396052986383 -0.004574081394821405 -0.00020017463248223066 0.0003271325840614736 -0.00020017463248223066 -0.002395632676780224" pbc="T T T"
Cu       5.98238355       8.15000344       7.77448284        0      -0.05676746      -0.03910068      -0.18932284
Cu       5.18875368       1.86035605       2.43830435        1       0.03458771       0.06059060       0.17792743
Cu       6.85497607       5.75214797       5.35946015        2       0.27877721       0.10875051       0.52652264
Cu       4.31405642       4.25300041       4.84972716        3      -0.29038963      -0.08750147      -0.48322746
Cu       1.98012257       1.24218638       2.60380908        4      -0.44224477       0.08703418       0.04236368
Cu       9.18685415       8.76651062       7.60690207        5       0.43768260      -0.05579910      -0.01107113
Cu       7.60739021       2.87879709       0.24954515        6       0.18749660      -0.24497283       0.05230236
Cu       3.56532260       7.13385663       9.96118534        7      -0.20316550       0.25445753      -0.02995506
H        5.32612390       7.17030682       2.87043728        8      -0.00891910      -0.06346305      -0.07983743
H        5.84122214       2.83762350       7.34005769        9      -0.00687613       0.08333607       0.07499321
H        2.47115383       1.29676546       5.80778573       10       0.02568622      -0.08687727       0.01384191
H        8.69660572       8.71018878       4.41114469       11       0.07925975      -0.06963675      -0.15465450
H        7.80369780       6.90996928      10.14040904       12       0.07128292       0.08185721       0.09276164
H        3.36534771       3.09953988       0.06902382       13      -0.06141921      -0.11669243      -0.10528670
H        8.37463272       3.72527572       7.48176553       14      -0.00070984      -0.08571771      -0.02001291
H        2.79551007       6.28761730       2.73318509       15      -0.01133294       0.10868554       0.03051665
H        6.49662929       5.14519270       2.26157942       16      -0.06405719       0.03269166       0.05302560
H        4.67252672       4.85871883       7.94737514       17       0.09495453      -0.05564399      -0.02358049
H        1.46959526       3.41852707       5.02194335       18       0.13545443      -0.04124320       0.04606338
H        9.69988897       6.59249657       5.19248255       19      -0.09309655       0.02561387       0.00166379
H        4.38908914       7.36823143       0.63961757       20       0.09582572      -0.16979373       0.08147178
H        6.77749906       2.64296280       9.57887448       21       0.01611251       0.04611732       0.00970177
H        2.86898567       2.45303525       7.91209661       22       0.07117707      -0.00823803       0.07922433
H        8.30023713       7.55671286       2.30016742       23      -0.01897113      -0.01752146       0.02884719
C        5.16056191       7.67576583       3.81489723       24       0.20002276      -0.45351925      -0.21865135
C        6.00520100       2.33630220       6.39351441       25      -0.00548954       0.22654942       0.36782596
C        4.46892069       9.02185514       5.30088449       26      -0.35131565       0.46430236       0.35214680
C        6.70427752       0.98485136       4.90870648       27       0.08433023      -0.14641188      -0.14684273
C        7.74759536       6.26944882       9.26955762       28      -0.17153224       0.25455189       0.26720610
C        3.42089943       3.73575050       0.94187164       29       0.08098143      -0.01879092      -0.30943725
C        8.05386248       4.66449566       7.92178143       30      -0.06122889      -0.31388271      -0.55552208
C        3.11559234       5.34849659       2.29558826       31       0.07661347       0.00989430       0.21581584
C        7.24116060       4.50473593       2.72187184       32      -0.26245740       0.27947810      -0.50870287
C        3.92860880       5.50030604       7.49120248       33       0.17508423      -0.17082497       0.45688114
C        8.56618071       3.61915577       4.12283744       34       0.13874598      -0.23424831       0.21636385
C        2.60676269       6.39220051       6.09212853       35      -0.28503010       0.29176962      -0.33403635
C        3.79148170       8.11415554       0.13676963       36       0.15295154       0.13777718       0.18701093
C        7.38229333       1.89449020      10.08164459       37      -0.42639920       0.14057061      -0.47173837
C        3.30623427       2.15115604       8.86342129       38      -0.24354610       0.25106227      -0.47405997
C        7.86614885       7.86231194       1.35297092       39       0.24131715      -0.39138874       0.32394782
N        5.32192743       8.20827536       5.91569209       40      -0.11889271      -0.05079788      -0.08166583
N        5.84686296       1.80351312       4.29770322       41       0.26839250      -0.15721747      -0.06215329
N        5.77199921       7.32389430       4.94718370       42      -0.23835552       0.18576238      -0.28248823
N        5.39939787       2.68270065       5.26234897       43       0.10081942      -0.02242527       0.22970180
N        4.32705097       8.73156374       3.98218509       44       0.38715866      -0.21083963       0.43243855
N        6.83909694       1.27542352       6.22844524       45      -0.40525681       0.28919816      -0.43755513
N        7.26270864       5.53345535       7.28213043       46       0.20366158       0.03870921       0.19461244
N        3.90414946       4.47164263       2.93234191       47      -0.27857888       0.11128438      -0.28059331
N        7.06363041       6.58533305       8.16828994       48       0.15784182      -0.37314609       0.11001652
N        4.10198275       3.42752931       2.04114293       49       0.02601170       0.10550734       0.08640987
N        8.38498555       5.07441994       9.16800150       50      -0.32236382       0.45672238      -0.21343398
N        2.78771212       4.93292593       1.04098665       51       0.29285985      -0.26683295       0.46272033
N        8.66726951       2.89599834       3.00709541       52       0.01671033       0.21672273       0.03702165
N        2.49989184       7.11625736       7.20683222       53       0.17537804      -0.38423926       0.01584120
N        7.80714570       3.47492729       2.08934277       54       0.07720823       0.19847739       0.44625598
N        3.36516148       6.53159123       8.12395078       55      -0.14513081      -0.13802835      -0.43425578
N        7.67909802       4.64166241       3.99451499       56       0.22132131      -0.34531638      -0.33621645
N        3.48932531       5.36807223       6.21791667       57      -0.16595785       0.29165757       0.33241835
N        3.14771308       2.84149602       9.99358282       58       0.06215039      -0.27001452      -0.06429468
N        8.01904219       7.17281340       0.22132572       59       0.09483944       0.08894835       0.04353926
N        1.80956579       0.65397396       0.75369142       60       0.10510901      -0.25582913      -0.30378458
N        9.36044814       9.35839348       9.46012918       61      -0.07162081       0.19327872       0.32771888
N        5.52534078       9.55989438       9.02742645       62      -0.22835207       0.40026647       0.51869857
N        5.64652282       0.44672849       1.18645043       63       0.17165121      -0.17567027      -0.32343870
64
Lattice="7.66913321 0.0 0.0 1.4588158873853376 8.52435721633239 0.0 2.0419408642135806 1.4846546274884325 10.213174596348404" Properties=species:S:1:pos:R:3:spacegroup_kinds:I:1:forces:R:3 spacegroup="P 1" unit_cell=conventional occupancy="_JSON {\"0\": {\"Cu\": 1}, \"1\": {\"Cu\": 1}, \"2\": {\"Cu\": 1}, \"3\": {\"Cu\": 1}, \"4\": {\"Cu\": 1}, \"5\": {\"Cu\": 1}, \"6\": {\"Cu\": 1}, \"7\": {\"Cu\": 1}, \"8\": {\"H\": 1}, \"9\": {\"H\": 1}, \"10\": {\"H\": 1}, \"11\": {\"H\": 1}, \"12\": {\"H\": 1}, \"13\": {\"H\": 1}, \"14\": {\"H\": 1}, \"15\": {\"H\": 1}, \"16\": {\"H\": 1}, \"17\": {\"H\": 1}, \"18\": {\"H\": 1}, \"19\": {\"H\": 1}, \"20\": {\"H\": 1}, \"21\": {\"H\": 1}, \"22\": {\"H\": 1}, \"23\": {\"H\": 1}, \"24\": {\"C\": 1}, \"25\": {\"C\": 1}, \"26\": {\"C\": 1}, \"27\": {\"C\": 1}, \"28\": {\"C\": 1}, \"29\": {\"C\": 1}, \"30\": {\"C\": 1}, \"31\": {\"C\": 1}, \"32\": {\"C\": 1}, \"33\": {\"C\": 1}, \"34\": {\"C\": 1}, \"35\": {\"C\": 1}, \"36\": {\"C\": 1}, \"37\": {\"C\": 1}, \"38\": {\"C\": 1}, \"39\": {\"C\": 1}, \"40\": {\"N\": 1}, \"41\": {\"N\": 1}, \"42\": {\"N\": 1}, \"43\": {\"N\": 1}, \"44\": {\"N\": 1}, \"45\": {\"N\": 1}, \"46\": {\"N\": 1}, \"47\": {\"N\": 1}, \"48\": {\"N\": 1}, \"49\": {\"N\": 1}, \"50\": {\"N\": 1}, \"51\": {\"N\": 1}, \"52\": {\"N\": 1}, \"53\": {\"N\": 1}, \"54\": {\"N\": 1}, \"55\": {\"N\": 1}, \"56\": {\"N\": 1}, \"57\": {\"N\": 1}, \"58\": {\"N\": 1}, \"59\": {\"N\": 1}, \"60\": {\"N\": 1}, \"61\": {\"N\": 1}, \"62\": {\"N\": 1}, \"63\": {\"N\": 1}}" energy=-430.9834289550781 free_energy=-430.9834289550781 stress="-0.003965113777667284 -0.002710541943088174 0.00037780776619911194 -0.002710541943088174 -0.004460281692445278 -0.00029978202655911446 0.00037780776619911194 -0.00029978202655911446 -0.0024056455586105585" pbc="T T T"
Cu       5.97979146       8.14830984       7.77670415        0      -0.04147866      -0.04221810      -0.20316431
Cu       5.18697172       1.85920720       2.43609375        1       0.03984551       0.07897520       0.22421411
Cu       6.85598673       5.75134617       5.35862409        2       0.26805225       0.12159850       0.51470834
Cu       4.31366824       4.25016962       4.85058637        3      -0.29863954      -0.07550342      -0.49655014
Cu       1.98181950       1.24322961       2.60574400        4      -0.44836366       0.07544337       0.01919828
Cu       9.18623521       8.76614737       7.60940303        5       0.44516644      -0.07245779      -0.03065808
Cu       7.60814116       2.88129414       0.25038037        6       0.18523644      -0.26283121       0.04119480
Cu       3.56359970       7.13133573       9.95849940        7      -0.19985917       0.28038546      -0.00346733
H        5.32705298       7.17025112       2.86990053        8      -0.02251733      -0.06944191      -0.10654357
H        5.83969429       2.83957555       7.33790921        9       0.00818593       0.07790940       0.11603996
H        2.47262871       1.29903017       5.80778122       10       0.02298430      -0.07146627       0.02927357
H        8.69762907       8.71034196       4.41004562       11       0.06392547      -0.06075220      -0.16697128
H        7.80591503       6.90725179      10.14103500       12       0.05309845       0.06234407       0.05192697
H        3.36473169       3.10191665       0.06650913       13      -0.06666955      -0.11234128      -0.11297902
H        8.37492575       3.72608485       7.48338566       14      -0.00061937      -0.07784300      -0.01512589
H        2.79307727       6.28987670       2.73394149       15      -0.00921763       0.11120029       0.03535470
H        6.49751126       5.14752779       2.26411579       16      -0.09498651       0.03862469       0.02591941
H        4.67082038       4.85685838       7.94524190       17       0.07678633      -0.02588986      -0.03552037
H        1.46967106       3.41607791       5.02042660       18       0.22081354      -0.06814260       0.17733026
H        9.69997352       6.59214409       5.18989772       19      -0.06669259       0.02146555       0.07116991
H        4.38764511       7.36729362       0.64000899       20       0.13958526      -0.22202212       0.13090432
H        6.77745706       2.64591375       9.57928017       21       0.09252454      -0.05484459       0.06855570
H        2.87195112       2.45478298       7.91474458       22       0.06497786      -0.00454495       0.05398221
H        8.30179311       7.55635945       2.30267669       23      -0.04601431      -0.00978000      -0.01441741
C        5.15793745       7.67407214       3.81365658       24       0.20649438      -0.40026581      -0.16589457
C        6.00736292       2.33379364       6.39533832       25      -0.07772714       0.28498510       0.31680906
C        4.47092346       9.02466100       5.30224741       26      -0.29587707       0.36533937       0.31843078
C        6.70172960       0.98356825       4.90628484       27       0.14491838      -0.12114191       0.03814566
C        7.74588508       6.26647721       9.26896929       28      -0.17300886       0.31741083       0.32221517
C        3.41975899       3.73804533       0.93943363       29       0.16968998      -0.07469574      -0.23217554
C        8.05377116       4.66584244       7.92335593       30      -0.02636367      -0.50356710      -0.71291065
C        3.11414858       5.35105307       2.29701029       31       0.09462957      -0.10068327       0.08238104
C        7.23822113       4.50294182       2.72179845       32      -0.10194702       0.21165879      -0.36633164
C        3.92901680       5.50236537       7.48827921       33       0.27347183      -0.26159805       0.57466137
C        8.56914167       3.61702712       4.12536355       34      -0.04638937      -0.13482428       0.01041512
C        2.60541507       6.39311501       6.09336522       35      -0.26139954       0.17234400      -0.51959848
C        3.79266586       8.11255632       0.13851496       36       0.02648902       0.28604239       0.09185238
C        7.38373218       1.89266132      10.08279558       37      -0.62577021       0.43845826      -0.50030196
C        3.30888036       2.15364070       8.86572709       38      -0.24120703       0.16168448      -0.62165868
C        7.86323503       7.86123563       1.35569595       39       0.25888580      -0.40465054       0.21159491
N        5.32477418       8.20834585       5.91460462       40      -0.15052789      -0.01270412      -0.07181449
N        5.84445885       1.80426120       4.30048257       41       0.26229015      -0.21342477      -0.16695200
N        5.77067061       7.32527213       4.94454297       42      -0.15905602       0.09309353      -0.20153628
N        5.39707466       2.68024376       5.26426227       43       0.14258532      -0.01636931       0.30747518
N        4.32842205       8.73104560       3.98487283       44       0.29771087      -0.13294825       0.34541720
N        6.84074419       1.27469301       6.23071458       45      -0.42980844       0.25438452      -0.60250974
N        7.26393069       5.53086331       7.27952881       46       0.17631683       0.11498538       0.25610042
N        3.90287480       4.47335922       2.93050484       47      -0.22796524       0.03710006      -0.23712555
N        7.06319652       6.58280542       8.16748852       48       0.13643575      -0.34201694       0.09490348
N        4.10451570       3.42556371       2.03885891       49      -0.11863188       0.30103615       0.04557448
N        8.38327891       5.07175600       9.16731753       50      -0.29104272       0.50283056      -0.11309214
N        2.78864959       4.93468272       1.03850857       51       0.27195790      -0.22679925       0.53968149
N        8.66560766       2.89538882       3.00845764       52       0.08759655       0.14821956       0.03930014
N        2.50152671       7.11456937       7.20492096       53       0.10668938      -0.22530031       0.13400444
N        7.80737637       3.47202119       2.09081463       54       0.00933570       0.26879674       0.45257878
N        3.36760369       6.53335225       8.12329319       55      -0.15770672      -0.16453838      -0.48412263
N        7.68091035       4.63986108       3.99536813       56       0.18764502      -0.34584317      -0.37954789
N        3.48947600       5.36682763       6.21848345       57      -0.22931543       0.34353423       0.25707126
N        3.14978681       2.84368138       9.99207144       58       0.07057525      -0.24035470       0.02949767
N        8.01897067       7.17292550       0.21917246       59       0.06452514       0.15376921       0.20163831
N        1.80935332       0.65573769       0.75092817       60       0.17132199      -0.29299778      -0.15140297
N        9.35864234       9.36119134       9.45952563       61       0.02301689       0.06906809       0.34176821
N        5.52510405       9.55953650       9.02897470       62      -0.21590790       0.40165013       0.52146703
N        5.64356485       0.44856323       1.18923390       63       0.26094753      -0.34953591      -0.38038167
64
Lattice="7.66913321 0.0 0.0 1.4588158873853376 8.52435721633239 0.0 2.0419408642135806 1.4846546274884325 10.213174596348404" Properties=species:S:1:pos:R:3:spacegroup_kinds:I:1:forces:R:3 spacegroup="P 1" unit_cell=conventional occupancy="_JSON {\"0\": {\"Cu\": 1}, \"1\": {\"Cu\": 1}, \"2\": {\"Cu\": 1}, \"3\": {\"Cu\": 1}, \"4\": {\"Cu\": 1}, \"5\": {\"Cu\": 1}, \"6\": {\"Cu\": 1}, \"7\": {\"Cu\": 1}, \"8\": {\"H\": 1}, \"9\": {\"H\": 1}, \"10\": {\"H\": 1}, \"11\": {\"H\": 1}, \"12\": {\"H\": 1}, \"13\": {\"H\": 1}, \"14\": {\"H\": 1}, \"15\": {\"H\": 1}, \"16\": {\"H\": 1}, \"17\": {\"H\": 1}, \"18\": {\"H\": 1}, \"19\": {\"H\": 1}, \"20\": {\"H\": 1}, \"21\": {\"H\": 1}, \"22\": {\"H\": 1}, \"23\": {\"H\": 1}, \"24\": {\"C\": 1}, \"25\": {\"C\": 1}, \"26\": {\"C\": 1}, \"27\": {\"C\": 1}, \"28\": {\"C\": 1}, \"29\": {\"C\": 1}, \"30\": {\"C\": 1}, \"31\": {\"C\": 1}, \"32\": {\"C\": 1}, \"33\": {\"C\": 1}, \"34\": {\"C\": 1}, \"35\": {\"C\": 1}, \"36\": {\"C\": 1}, \"37\": {\"C\": 1}, \"38\": {\"C\": 1}, \"39\": {\"C\": 1}, \"40\": {\"N\": 1}, \"41\": {\"N\": 1}, \"42\": {\"N\": 1}, \"43\": {\"N\": 1}, \"44\": {\"N\": 1}, \"45\": {\"N\": 1}, \"46\": {\"N\": 1}, \"47\": {\"N\": 1}, \"48\": {\"N\": 1}, \"49\": {\"N\": 1}, \"50\": {\"N\": 1}, \"51\": {\"N\": 1}, \"52\": {\"N\": 1}, \"53\": {\"N\": 1}, \"54\": {\"N\": 1}, \"55\": {\"N\": 1}, \"56\": {\"N\": 1}, \"57\": {\"N\": 1}, \"58\": {\"N\": 1}, \"59\": {\"N\": 1}, \"60\": {\"N\": 1}, \"61\": {\"N\": 1}, \"62\": {\"N\": 1}, \"63\": {\"N\": 1}}" energy=-430.9786071777344 free_energy=-430.9786071777344 stress="-0.0034388722851872444 -0.003276382340118289 0.00063816033070907 -0.003276382340118289 -0.004095025360584259 -0.0009826654568314552 0.00063816033070907 -0.0009826654568314552 -0.0027974857948720455" pbc="T T T"
Cu       5.97743329       8.14662296       7.77411167        0      -0.02247655      -0.03706036      -0.15878969
Cu       5.18570764       1.86156954       2.43389465        1       0.05953962       0.05351223       0.23450053
Cu       6.85718463       5.74863394       5.35834682        2       0.26228628       0.14026864       0.50361466
Cu       4.31244992       4.25036635       4.85037084        3      -0.29734594      -0.07216997      -0.49921244
Cu       1.98180736       1.24392577       2.60818922        4      -0.43862301       0.05709362       0.00913571
Cu       9.18503872       8.76337299       7.61004439        5       0.43437958      -0.03970395      -0.02685406
Cu       7.60761334       2.88285279       0.24773318        6       0.20280039      -0.26825243       0.07683346
Cu       3.56177084       7.13419158       9.95744876        7      -0.16893187       0.23821583      -0.00702504
H        5.32948584       7.17052375       2.86902019        8      -0.02793144      -0.05514835      -0.10650960
H        5.84199787       2.83818165       7.33501166        9      -0.01497312       0.14225788       0.23527366
H        2.47086763       1.29643749       5.80922448       10       0.01796725      -0.05993138       0.02464008
H        8.69753871       8.71183896       4.41104376       11       0.13263318      -0.16133416      -0.22814088
H        7.80646845       6.90862411      10.13955676       12       0.06380606       0.07993922       0.10999979
H        3.36409472       3.09977760       0.06914534       13      -0.06942888      -0.09327271      -0.12110014
H        8.37286057       3.72810252       7.48219183       14       0.02229450      -0.10717095      -0.01403277
H        2.79584034       6.29284463       2.73158755       15       0.00021406       0.04125322       0.00296739
H        6.50051485       5.15048152       2.26183685       16      -0.03177913      -0.01926751       0.07278769
H        4.67319734       4.85560931       7.94506173       17       0.06009518      -0.01435427      -0.03274145
H        1.47151779       3.41486535       5.02114723       18       0.18473287      -0.06095613       0.10550632
H        9.69739314       6.59112243       5.18714928       19       0.03215548       0.00266201       0.22226399
H        4.38939933       7.36502688       0.64120449       20       0.15052374      -0.23248053       0.13933747
H        6.78025116       2.64884297       9.57777449       21       0.12873074      -0.11297947       0.10580868
H        2.87164435       2.45691541       7.91610604       22       0.07378314      -0.02515787       0.07193939
H        8.30395446       7.55543565       2.30460646       23      -0.08414821       0.01240271      -0.07972625
C        5.15961916       7.67645170       3.81148627       24       0.31885237      -0.46619835       0.07662888
C        6.00751276       2.33531377       6.39516857       25      -0.01292188       0.13165602       0.10127935
C        4.47169550       9.02511787       5.30208504       26      -0.28443983       0.36450028       0.45024765
C        6.70453524       0.98294539       4.90534652       27       0.00991774       0.01539545       0.06131025
C        7.74650209       6.26506841       9.27172424       28      -0.20127238       0.36509025       0.20613521
C        3.42214007       3.73893811       0.93986633       29       0.14144245      -0.08567089      -0.29544324
C        8.05541104       4.66699451       7.92431257       30      -0.13787322      -0.42057252      -0.88081646
C        3.11296632       5.34993776       2.29429252       31       0.13216361       0.04746208       0.32723320
C        7.24098712       4.50397038       2.72403665       32      -0.17503326       0.18307038      -0.56826371
C        3.92915002       5.49991462       7.48921635       33       0.22444282      -0.23113780       0.47848701
C        8.57150935       3.61422203       4.12261035       34      -0.03283386      -0.03861499       0.24062014
C        2.60733810       6.39596562       6.09566608       35      -0.38174903       0.09122538      -0.88232857
C        3.79496952       8.11097207       0.14142542       36      -0.07491286       0.39168027      -0.09672856
C        7.38445120       1.89198412      10.08346468       37      -0.67977792       0.51591527      -0.53409469
C        3.30593915       2.15118281       8.86794676       38      -0.19781157       0.23043600      -0.70711643
C        7.86274872       7.86113215       1.35640072       39       0.31106192      -0.49339730       0.25736758
N        5.32339157       8.20798214       5.91748999       40      -0.12831140      -0.04100488      -0.15482432
N        5.84650246       1.80332649       4.29770158       41       0.25411648      -0.15551399      -0.08729207
N        5.77354961       7.32570633       4.94748981       42      -0.26603171       0.15186799      -0.36512762
N        5.39803693       2.68283656       5.26285703       43       0.21071482      -0.11997788       0.29558435
N        4.33124565       8.73245136       3.98776378       44       0.26233736      -0.13166532       0.18745880
N        6.84101061       1.27276597       6.22868380       45      -0.46657747       0.34309226      -0.52644169
N        7.26181455       5.53351610       7.27736217       46       0.31449261       0.01123627       0.45172817
N        3.90043870       4.47347817       2.93243398       47      -0.19565126      -0.00505023      -0.30449179
N        7.06527500       6.58210550       8.16969066       48       0.05074932      -0.27229401       0.04719881
N        4.10583803       3.42560629       2.03702417       49      -0.11999927       0.34242836       0.16177016
N        8.38619050       5.07419219       9.16494531       50      -0.25962973       0.42490312      -0.03936980
N        2.79118572       4.93635816       1.04077475       51       0.18917343      -0.28134346       0.31300169
N        8.66611616       2.89446683       3.00892777       52       0.12185892       0.06397997      -0.02920361
N        2.49973230       7.11528611       7.20367625       53       0.15881903      -0.23987004       0.23574442
N        7.80936329       3.46930262       2.09259170       54      -0.07494219       0.35950667       0.38578248
N        3.36492978       6.53064791       8.12039711       55      -0.11429126      -0.11024286      -0.30373082
N        7.68278698       4.63959109       3.99372573       56       0.25258347      -0.35988581      -0.26875260
N        3.49031377       5.36759244       6.21739673       57      -0.22489142       0.35432076       0.30476379
N        3.15146448       2.84641756       9.99074862       58       0.08045451      -0.33272341       0.14462109
N        8.01998179       7.17242456       0.21829911       59       0.06004874       0.20948337       0.27973145
N        1.80904131       0.65395403       0.75273328       60       0.18232529      -0.26498747      -0.18397801
N        9.36157232       9.36258212       9.46071083       61       0.00848227       0.03820929       0.26202679
N        5.52769161       9.56211538       9.02664427       62      -0.19397470       0.31479007       0.68833578
N        5.64089312       0.44566678       1.19058757       63       0.26858604      -0.30846450      -0.36953020
64
Lattice="7.66913321 0.0 0.0 1.4588158873853376 8.52435721633239 0.0 2.0419408642135806 1.4846546274884325 10.213174596348404" Properties=species:S:1:pos:R:3:spacegroup_kinds:I:1:forces:R:3 spacegroup="P 1" unit_cell=conventional occupancy="_JSON {\"0\": {\"Cu\": 1}, \"1\": {\"Cu\": 1}, \"2\": {\"Cu\": 1}, \"3\": {\"Cu\": 1}, \"4\": {\"Cu\": 1}, \"5\": {\"Cu\": 1}, \"6\": {\"Cu\": 1}, \"7\": {\"Cu\": 1}, \"8\": {\"H\": 1}, \"9\": {\"H\": 1}, \"10\": {\"H\": 1}, \"11\": {\"H\": 1}, \"12\": {\"H\": 1}, \"13\": {\"H\": 1}, \"14\": {\"H\": 1}, \"15\": {\"H\": 1}, \"16\": {\"H\": 1}, \"17\": {\"H\": 1}, \"18\": {\"H\": 1}, \"19\": {\"H\": 1}, \"20\": {\"H\": 1}, \"21\": {\"H\": 1}, \"22\": {\"H\": 1}, \"23\": {\"H\": 1}, \"24\": {\"C\": 1}, \"25\": {\"C\": 1}, \"26\": {\"C\": 1}, \"27\": {\"C\": 1}, \"28\": {\"C\": 1}, \"29\": {\"C\": 1}, \"30\": {\"C\": 1}, \"31\": {\"C\": 1}, \"32\": {\"C\": 1}, \"33\": {\"C\": 1}, \"34\": {\"C\": 1}, \"35\": {\"C\": 1}, \"36\": {\"C\": 1}, \"37\": {\"C\": 1}, \"38\": {\"C\": 1}, \"39\": {\"C\": 1}, \"40\": {\"N\": 1}, \"41\": {\"N\": 1}, \"42\": {\"N\": 1}, \"43\": {\"N\": 1}, \"44\": {\"N\": 1}, \"45\": {\"N\": 1}, \"46\": {\"N\": 1}, \"47\": {\"N\": 1}, \"48\": {\"N\": 1}, \"49\": {\"N\": 1}, \"50\": {\"N\": 1}, \"51\": {\"N\": 1}, \"52\": {\"N\": 1}, \"53\": {\"N\": 1}, \"54\": {\"N\": 1}, \"55\": {\"N\": 1}, \"56\": {\"N\": 1}, \"57\": {\"N\": 1}, \"58\": {\"N\": 1}, \"59\": {\"N\": 1}, \"60\": {\"N\": 1}, \"61\": {\"N\": 1}, \"62\": {\"N\": 1}, \"63\": {\"N\": 1}}" energy=-430.9638366699219 free_energy=-430.9638366699219 stress="-0.0034048513043671846 -0.0034006070345640182 0.0004950665752403438 -0.0034006070345640182 -0.003658139146864414 -0.0006627163384109735 0.0004950665752403438 -0.0006627163384109735 -0.002672049216926098" pbc="T T T"
Cu       5.97627185       8.14583556       7.77324576        0      -0.01616180      -0.03576722      -0.15315451
Cu       5.18300250       1.85930010       2.43180580        1       0.06086410       0.08864826       0.27270085
Cu       6.85474535       5.74694176       5.35910044        2       0.27743098       0.12703779       0.49812335
Cu       4.31287816       4.24775260       4.85117073        3      -0.31921676      -0.04227933      -0.50573170
Cu       1.98025392       1.24309787       2.60615404        4      -0.43080157       0.06539693       0.05123306
Cu       9.18333314       8.76587096       7.60794233        5       0.45583725      -0.07046513      -0.01528254
Cu       7.60934861       2.88224688       0.24885109        6       0.18838915      -0.25632191       0.06655658