78
Lattice="6.84878738 0.0 0.0 -1.6000265520871357 9.985529600637117 0.0 -1.8898131323604899 -3.0448861251154082 10.446399382853524" Properties=species:S:1:pos:R:3:spacegroup_kinds:I:1:forces:R:3 spacegroup="P 1" unit_cell=conventional occupancy="_JSON {\"0\": {\"Cu\": 1}, \"1\": {\"Cu\": 1}, \"2\": {\"H\": 1}, \"3\": {\"H\": 1}, \"4\": {\"H\": 1}, \"5\": {\"H\": 1}, \"6\": {\"H\": 1}, \"7\": {\"H\": 1}, \"8\": {\"H\": 1}, \"9\": {\"H\": 1}, \"10\": {\"H\": 1}, \"11\": {\"H\": 1}, \"12\": {\"H\": 1}, \"13\": {\"H\": 1}, \"14\": {\"H\": 1}, \"15\": {\"H\": 1}, \"16\": {\"H\": 1}, \"17\": {\"H\": 1}, \"18\": {\"H\": 1}, \"19\": {\"H\": 1}, \"20\": {\"H\": 1}, \"21\": {\"H\": 1}, \"22\": {\"H\": 1}, \"23\": {\"H\": 1}, \"24\": {\"H\": 1}, \"25\": {\"H\": 1}, \"26\": {\"H\": 1}, \"27\": {\"H\": 1}, \"28\": {\"H\": 1}, \"29\": {\"H\": 1}, \"30\": {\"C\": 1}, \"31\": {\"C\": 1}, \"32\": {\"C\": 1}, \"33\": {\"C\": 1}, \"34\": {\"C\": 1}, \"35\": {\"C\": 1}, \"36\": {\"C\": 1}, \"37\": {\"C\": 1}, \"38\": {\"C\": 1}, \"39\": {\"C\": 1}, \"40\": {\"C\": 1}, \"41\": {\"C\": 1}, \"42\": {\"C\": 1}, \"43\": {\"C\": 1}, \"44\": {\"C\": 1}, \"45\": {\"C\": 1}, \"46\": {\"C\": 1}, \"47\": {\"C\": 1}, \"48\": {\"C\": 1}, \"49\": {\"C\": 1}, \"50\": {\"C\": 1}, \"51\": {\"C\": 1}, \"52\": {\"C\": 1}, \"53\": {\"C\": 1}, \"54\": {\"C\": 1}, \"55\": {\"C\": 1}, \"56\": {\"C\": 1}, \"57\": {\"C\": 1}, \"58\": {\"C\": 1}, \"59\": {\"C\": 1}, \"60\": {\"N\": 1}, \"61\": {\"N\": 1}, \"62\": {\"N\": 1}, \"63\": {\"N\": 1}, \"64\": {\"N\": 1}, \"65\": {\"N\": 1}, \"66\": {\"O\": 1}, \"67\": {\"O\": 1}, \"68\": {\"O\": 1}, \"69\": {\"O\": 1}, \"70\": {\"O\": 1}, \"71\": {\"O\": 1}, \"72\": {\"O\": 1}, \"73\": {\"O\": 1}, \"74\": {\"O\": 1}, \"75\": {\"O\": 1}, \"76\": {\"O\": 1}, \"77\": {\"O\": 1}}" energy=-520.2447509765625 free_energy=-520.2447509765625 stress="-0.0062172915786504745 -0.00034274320933036506 0.002197587862610817 -0.00034274320933036506 -0.003854429116472602 0.002695441944524646 0.002197587862610817 0.002695441944524646 -0.004025341011583805" pbc="T T T"
Cu       1.16554931       1.12520318       3.54906667        0       0.06655717       0.19432190       0.05317791
Cu       2.19195646       5.81451028       6.89607079        1      -0.04620317      -0.13459204       0.00022803
H        4.16387676       1.19284954       3.46854633        2       0.15557621       0.04680972      -0.23473731
H       -0.80587907       5.74138346       6.98142129        3       0.00702640       0.07123032       0.12631926
H        3.34978624      -0.16063601       3.79315225        4       0.06001225       0.23375665      -0.01837841
H        0.01141460       7.10093344       6.65436355        5      -0.08275482      -0.12042338       0.06505001
H        1.80315472       4.97885015       4.57330138        6      -0.14162983      -0.11720910      -0.06558886
H        1.55515617       1.96498289       5.88017259        7       0.01841098      -0.03158179       0.00051836
H        1.81998057       6.64687655       4.50461338        8      -0.12014472       0.11112107      -0.09198153
H        1.54529120       0.29075626       5.94612594        9      -0.07248586       0.14072295      -0.01936829
H        4.70869345       3.38165120       1.07866181       10       0.02984361      -0.23642285       0.18484724
H       -1.35190549       3.56067732       9.36984087       11      -0.02220429       0.31468967      -0.26066104
H        3.91193219       7.91790666       4.33583767       12       0.02342612      -0.16779380      -0.05373282
H       -0.55081490      -0.96892246       6.10650671       13      -0.00227429      -0.03183368       0.04508586
H        3.68693368       3.61925072       4.11582983       14      -0.11521669      -0.14319248      -0.00125430
H       -0.32410396       3.32090493       6.33106689       15       0.11449118       0.13404313      -0.01701364
H        0.46964838       5.64153385       3.01512209       16       0.20956096       0.08504333      -0.10135853
H        2.88653842       1.29801713       7.43518382       17       0.07472159      -0.07527906       0.00552769
H        2.47272353       3.08298993       1.92972382       18      -0.05376478      -0.25970882      -0.21246324
H        0.88434696       3.85969169       8.51705861       19       0.05076107       0.20958778       0.15068017
H        5.18634473       5.84061086       0.96048807       20      -0.02368248      -0.00331181      -0.04813772
H       -1.82708278       1.10017196       9.48319775       21       0.00287926       0.03126584       0.08175100
H        3.02730723       2.64184029       9.65027633       22       0.02606265       0.11392936       0.20012113
H        0.32329873       4.30474434       0.78973272       23       0.05056130      -0.21405047      -0.03294704
H        0.82146273      -1.45060671       8.34017301       24       0.00724563      -0.05428879       0.11257884
H        2.53223159       8.38900876       2.10479483       25      -0.04398317       0.05534842       0.15759596
H       -1.97776327       6.44760670       9.13242602       26      -0.07433707      -0.12010591      -0.10321765
H        5.34274056       0.50072002       1.31954253       27      -0.05979197      -0.25030944      -0.21599445
H       -0.70791677       9.31962783       1.11817069       28       0.03640265       0.07192415      -0.17136966
H        4.06617006      -2.37953022       9.32820677       29       0.00297651       0.01638247       0.18457969
C       -0.34380279       8.17883951       3.60988128       30      -0.27045444      -0.03219825      -0.04664034
C        3.70443478      -1.23326134       6.84306587       31       0.45196509      -0.17825630      -0.04235526
C       -1.14087242       6.91240027       3.68540927       32      -0.15418006      -0.26516435       0.13115288
C        4.50667924       0.03281367       6.75687766       33      -0.38976166       0.10260171       0.09470855
C        4.37345873       6.95101984       4.12078126       34       0.37524706       0.24787878      -0.15114476
C       -1.02054484      -0.01365053       6.32698534       35       0.11868594       0.03541319      -0.03932004
C        3.65301151       5.76509007       4.29912789       36      -0.66039479       0.24646744       0.24176827
C       -0.29560766       1.17292134       6.14260281       37       0.57353836      -0.17738254      -0.15966219
C        4.24647469       4.54269431       3.99270569       38       0.25119156      -0.23796830      -0.14466527
C       -0.88434161       2.39720263       6.44873088       39      -0.25603229       0.20156227       0.18332918
C       -1.27670723       4.49907395       3.55092427       40      -0.01841678       0.09696206      -0.02874178
C        4.64038813       2.43842418       6.89622069       41      -0.04670179       0.12417676      -0.00607772
C       -0.63729836       3.17330649       3.26932934       42      -0.19402429      -0.02660805       0.10183316
C        3.99711395       3.76060336       7.17665012       43       0.17908420       0.47212106      -0.01277744
C       -0.54276443       5.68094725       3.39892271       44       0.02026859      -0.00386021       0.00929731
C        3.90723220       1.26351472       7.04769393       45      -0.35931408      -0.17357668       0.07890110
C        2.31108909       2.28951237       1.18397309       46       0.27583483       0.59168559       0.45994896
C        1.04665454       4.65067078       9.26113456       47      -0.18498641      -0.37566280      -0.17339724
C        0.84287955      -0.59592933      10.31542678       48      -0.21742511      -0.14882928      -0.12108442
C        2.51624790       7.53521565       0.13562646       49       0.17321789       0.15223470       0.04841378
C        1.58475185       0.62490849       9.91049938       50      -0.10953368      -0.15689418       0.14036497
C        1.76976760       6.31116036       0.54070452       51       0.31963021       0.47080261      -0.29449692
C        5.31332048       5.16966671       0.09480806       52      -0.19289000      -0.06438118      -0.55454719
C       -1.95735715       1.77337054      10.34859128       53       0.13656357       0.12003708       0.35835716
C        0.52445819      -1.58685145       9.38399292       54       0.05827666      -0.04683779      -0.27389687
C        2.83451872       8.52552001       1.07141499       55       0.03636983       0.04854879      -0.30746084
C       -0.12759675      -2.73322594       9.81324877       56      -0.13986306       0.10755290       0.65651762
C        3.48668953       9.67114549       0.62778774       57       0.16171387       0.29621857       0.20145629
C        1.40252070       0.21490255       0.72081491       58      -0.07895529      -0.50923604      -0.43244067
C        1.95723327       6.73075772       9.73186554       59       0.08198259       0.25041413       0.07632199
N        2.33564468       5.81337685       4.82963755       60       0.59198999      -0.04283085      -0.02895090
N        1.01940267       1.12824570       5.61559649       61      -0.19043666      -0.13215442       0.15265976
N        1.64356767       1.20228460       1.60045686       62       0.10166560       0.04406286      -0.26344734
N        1.72087798       5.73940751       8.85160532       63      -0.20924483      -0.15000607       0.19782004
N        4.51731839       3.97353569       0.27242954       64       0.08504933       0.39428085       0.03466603
N       -1.15815529       2.96763160      10.17139907       65      -0.10958564      -0.55994701       0.15228042
O        0.55047018      -0.74268965       3.48427727       66       0.06710478       0.13508764       0.07171084
O        2.81111303       7.68544519       6.96830392       67      -0.08206012      -0.03132345      -0.05193505
O        3.41374107       0.81238082       3.96727560       68      -0.17777613      -0.29439610       0.13893743
O       -0.05246502       6.13043393       6.48395945       69       0.02951586       0.04323522      -0.07560759
O        0.91774130       8.13835189       3.67499708       70       0.18084812      -0.10748059      -0.06477622
O        2.44525412      -1.20489176       6.77244342       71      -0.29290500       0.25367075       0.07507411
O        5.52001966       2.25476993       2.72957977       72      -0.15806127       0.22872576       0.01010468
O       -2.15696531       4.68570153       7.71642663       73       0.01469079      -0.48410159      -0.12968472
O        0.59794449       3.06588853       3.62035084       74       0.15203893      -0.20233646      -0.14972065
O        2.75809433       3.88248711       6.82771866       75       0.09795186       0.01616277       0.18725204
O        1.26275342       1.28802490       8.90907471       76       0.03811652       0.03404170      -0.22267517
O        2.10491369       5.65737757       1.54165049       77      -0.15758085      -0.18258654       0.25277394
78
Lattice="6.84878738 0.0 0.0 -1.6000265520871357 9.985529600637117 0.0 -1.8898131323604899 -3.0448861251154082 10.446399382853524" Properties=species:S:1:pos:R:3:spacegroup_kinds:I:1:forces:R:3 spacegroup="P 1" unit_cell=conventional occupancy="_JSON {\"0\": {\"Cu\": 1}, \"1\": {\"Cu\": 1}, \"2\": {\"H\": 1}, \"3\": {\"H\": 1}, \"4\": {\"H\": 1}, \"5\": {\"H\": 1}, \"6\": {\"H\": 1}, \"7\": {\"H\": 1}, \"8\": {\"H\": 1}, \"9\": {\"H\": 1}, \"10\": {\"H\": 1}, \"11\": {\"H\": 1}, \"12\": {\"H\": 1}, \"13\": {\"H\": 1}, \"14\": {\"H\": 1}, \"15\": {\"H\": 1}, \"16\": {\"H\": 1}, \"17\": {\"H\": 1}, \"18\": {\"H\": 1}, \"19\": {\"H\": 1}, \"20\": {\"H\": 1}, \"21\": {\"H\": 1}, \"22\": {\"H\": 1}, \"23\": {\"H\": 1}, \"24\": {\"H\": 1}, \"25\": {\"H\": 1}, \"26\": {\"H\": 1}, \"27\": {\"H\": 1}, \"28\": {\"H\": 1}, \"29\": {\"H\": 1}, \"30\": {\"C\": 1}, \"31\": {\"C\": 1}, \"32\": {\"C\": 1}, \"33\": {\"C\": 1}, \"34\": {\"C\": 1}, \"35\": {\"C\": 1}, \"36\": {\"C\": 1}, \"37\": {\"C\": 1}, \"38\": {\"C\": 1}, \"39\": {\"C\": 1}, \"40\": {\"C\": 1}, \"41\": {\"C\": 1}, \"42\": {\"C\": 1}, \"43\": {\"C\": 1}, \"44\": {\"C\": 1}, \"45\": {\"C\": 1}, \"46\": {\"C\": 1}, \"47\": {\"C\": 1}, \"48\": {\"C\": 1}, \"49\": {\"C\": 1}, \"50\": {\"C\": 1}, \"51\": {\"C\": 1}, \"52\": {\"C\": 1}, \"53\": {\"C\": 1}, \"54\": {\"C\": 1}, \"55\": {\"C\": 1}, \"56\": {\"C\": 1}, \"57\": {\"C\": 1}, \"58\": {\"C\": 1}, \"59\": {\"C\": 1}, \"60\": {\"N\": 1}, \"61\": {\"N\": 1}, \"62\": {\"N\": 1}, \"63\": {\"N\": 1}, \"64\": {\"N\": 1}, \"65\": {\"N\": 1}, \"66\": {\"O\": 1}, \"67\": {\"O\": 1}, \"68\": {\"O\": 1}, \"69\": {\"O\": 1}, \"70\": {\"O\": 1}, \"71\": {\"O\": 1}, \"72\": {\"O\": 1}, \"73\": {\"O\": 1}, \"74\": {\"O\": 1}, \"75\": {\"O\": 1}, \"76\": {\"O\": 1}, \"77\": {\"O\": 1}}" energy=-520.2147827148438 free_energy=-520.2147827148438 stress="-0.006914498284459114 -0.0013534112367779016 0.001230526017025113 -0.0013534112367779016 -0.004883045796304941 0.0024249933194369078 0.001230526017025113 0.0024249933194369078 -0.0043428814969956875" pbc="T T T"
Cu       1.16289715       1.12906836       3.55024850        0       0.09684682       0.13862509       0.03377832
Cu       2.19535965       5.81641649       6.89572312        1      -0.06004438      -0.13148090       0.05150969
H        4.16584313       1.19058811       3.46539505        2       0.18690544       0.05789720      -0.25126374
H       -0.80796556       5.73960018       6.98360762        3       0.14383787       0.12396489       0.03743425
H        3.34630083      -0.16456759       3.79043075        4       0.08223806       0.45714903       0.01689227
H        0.00767440       7.09738789       6.65474122        5      -0.06941685       0.02388133       0.08638063
H        1.80125515       4.97729105       4.57830407        6      -0.05444063       0.03477930      -0.02692205
H        1.55377509       1.96436423       5.87908964        7       0.08278864       0.13147207       0.07249560
H        1.81992657       6.64918210       4.50846026        8      -0.12577701       0.10158972      -0.09640968
H        1.54479279       0.29295288       5.94858904        9      -0.10187665       0.20422862      -0.05050439
H        4.71131043       3.38370637       1.07535038       10       0.04736879      -0.35943323       0.34141973
H       -1.35229346       3.56556194       9.36851641       11       0.03291512       0.25071785      -0.13489954
H        3.91269956       7.91441000       4.34070193       12      -0.00376695      -0.08877443      -0.05987010
H       -0.55219560      -0.97376380       6.10709159       13      -0.04885086       0.14590415       0.06623095
H        3.69108538       3.61831942       4.11119530       14      -0.10849782      -0.09060559       0.01920621
H       -0.31947167       3.31892123       6.33523513       15       0.03908567       0.01820680      -0.00883424
H        0.47414586       5.63786864       3.01291748       16       0.11571951       0.10578558      -0.05087960
H        2.88883694       1.29579178       7.43417603       17      -0.03896935      -0.05909433       0.03038654
H        2.47472462       3.08640730       1.93384724       18      -0.07438570      -0.30371964      -0.25224987
H        0.88362406       3.85664018       8.51792861       19       0.06203543       0.25980642       0.10980298
H        5.18207044       5.83788135       0.95639773       20       0.01609061       0.01695129      -0.03222073
H       -1.82391165       1.10152210       9.48493462       21       0.02500291       0.00422955      -0.02288570
H        3.02868964       2.64439113       9.65021436       22       0.01147025       0.06726803       0.20038453
H        0.32827248       4.30040130       0.78936075       23      -0.04075178      -0.08140980      -0.22023746
H        0.81843715      -1.44716915       8.33737613       24      -0.02192921      -0.06575016       0.17726663
H        2.52729623       8.38711515       2.10290824       25      -0.01224693       0.06282502       0.09145255
H       -1.98080165       6.45001708       9.13034171       26      -0.03134713      -0.02278683      -0.02268296
H        5.34208572       0.49631575       1.31654029       27      -0.07175089      -0.23646304      -0.19725329
H       -0.70963495       9.31699992       1.11959705       28       0.09645912       0.14483437      -0.20245017
H        4.06151270      -2.37861278       9.33120406       29       0.14290839       0.20918277       0.07108190
C       -0.34262634       8.17760519       3.60710966       30      -0.52433896       0.02461559      -0.04767922
C        3.70180984      -1.23228812       6.84727814       31       0.65072608      -0.24419186      -0.05719475
C       -1.13594286       6.91201492       3.68593456       32      -0.45319992      -0.27433291       0.19105691
C        4.50849163       0.03290106       6.76173116       33      -0.40119439       0.19862558       0.01102869
C        4.37136327       6.95017391       4.11997778       34       0.63108236       0.24407929      -0.22023284
C       -1.01759686      -0.00888671       6.32303115       35      -0.18730590      -0.57325029       0.07384863
C        3.64966138       5.76687013       4.29596095       36      -0.54784727       0.22640730       0.28839642
C       -0.30052388       1.16835117       6.14099968       37       0.88810235       0.24144392      -0.21338171
C        4.24842259       4.54598555       3.99608748       38       0.28340161      -0.39359996      -0.22938235
C       -0.88544533       2.39325717       6.44831214       39      -0.36523849       0.39301068       0.25841153
C       -1.27345508       4.49844861       3.55358118       40      -0.10248125       0.13373414       0.01271129
C        4.63703564       2.43842728       6.89937925       41       0.16393790       0.19985282      -0.14634794
C       -0.63230354       3.17045637       3.27218354       42      -0.56253797       0.14721322       0.02312712
C        3.99627921       3.76222845       7.17603886       43       0.11223638       0.27990991      -0.05570145
C       -0.53954257       5.68076554       3.40223982       44       0.14235231      -0.05693734      -0.07047066
C        3.90521107       1.26601527       7.04472300       45      -0.27904704      -0.39703652       0.12295190
C        2.31041343       2.29209121       1.18687048       46       0.42467609       0.66362572       0.23779176
C        1.04200505       4.65233383       9.25793100       47      -0.12144080      -0.34009105      -0.10551709
C        0.84721797      -0.59406297      10.31361701       48      -0.32617474      -0.19181719       0.06336285
C        2.51247530       7.53313241       0.13133352       49       0.15793392       0.14030507       0.14171855
C        1.58695571       0.62750561       9.90654481       50      -0.08691803      -0.45355886       0.55429447
C        1.76560210       6.30669800       0.54320891       51       0.59565866       0.79447287      -0.37930316
C        5.31293300       5.16543874       0.09257506       52      -0.14273021       0.10506523      -0.52588975
C       -1.95511924       1.77740556      10.34405268       53       0.12467591      -0.06553918       0.70144677
C        0.52158955      -1.58338451       9.38360119       54       0.16688082       0.02920274      -0.32948002
C        2.83180416       8.52261533       1.06792312       55       0.04014910       0.12432688      -0.29361814
C       -0.12537244      -2.73009919       9.81476204       56      -0.25335625      -0.10384892       0.55162996
C        3.48288866       9.66974676       0.62322245       57       0.20106241       0.29359913       0.25000763
C        1.40557193       0.21252467       0.72123385       58      -0.09727268      -0.44458723      -0.38315439
C        1.96049168       6.73368732       9.72777200       59      -0.14247130       0.08962005       0.43318814
N        2.33705716       5.81610625       4.83201898       60       0.42683214      -0.20190217      -0.08673091
N        1.01798380       1.13266954       5.61861145       61      -0.24259177      -0.43378872       0.06339094
N        1.64620715       1.20437555       1.59866359       62       0.01412609      -0.06089551      -0.17585520
N        1.71979880       5.74422082       8.85621785       63      -0.23634383      -0.38055336      -0.12323064
N        4.51426602       3.97609033       0.27726371       64       0.08777735       0.49161220      -0.25330430
N       -1.15670010       2.97173502      10.17364971       65      -0.38182256      -0.64456803      -0.07600427
O        0.55168529      -0.74292615       3.48028654       66       0.04926851       0.14261866       0.07947338
O        2.81546397       7.68480781       6.97064830       67      -0.27549002       0.14431754      -0.06817181
O        3.41583366       0.81349219       3.96546730       68      -0.23862752      -0.53724098       0.13013235
O       -0.04827901       6.12945076       6.48862500       69      -0.13478249      -0.16373794      -0.01289153
O        0.91363646       8.13665191       3.67094017       70       0.52254403      -0.09157893      -0.04355268
O        2.44308474      -1.20005333       6.77483181       71      -0.22317348       0.19213857       0.09117649
O        5.52008655       2.25470160       2.73278790       72      -0.10963111       0.20099087       0.01611250
O       -2.16051212       4.68260061       7.71377569       73       0.23370063      -0.24616881       0.00839173
O        0.59794991       3.07090264       3.61812467       74       0.44379002      -0.30217773      -0.07097115
O        2.75872224       3.88659089       6.83095745       75      -0.03972584      -0.02307762       0.11687652
O        1.25970137       1.28566420       8.91198198       76      -0.01114435       0.29673573      -0.56848770
O        2.10947626       5.65886757       1.54261564       77      -0.19164783      -0.29282504       0.33986807
78
Lattice="6.84878738 0.0 0.0 -1.6000265520871357 9.985529600637117 0.0 -1.8898131323604899 -3.0448861251154082 10.446399382853524" Properties=species:S:1:pos:R:3:spacegroup_kinds:I:1:forces:R:3 spacegroup="P 1" unit_cell=conventional occupancy="_JSON {\"0\": {\"Cu\": 1}, \"1\": {\"Cu\": 1}, \"2\": {\"H\": 1}, \"3\": {\"H\": 1}, \"4\": {\"H\": 1}, \"5\": {\"H\": 1}, \"6\": {\"H\": 1}, \"7\": {\"H\": 1}, \"8\": {\"H\": 1}, \"9\": {\"H\": 1}, \"10\": {\"H\": 1}, \"11\": {\"H\": 1}, \"12\": {\"H\": 1}, \"13\": {\"H\": 1}, \"14\": {\"H\": 1}, \"15\": {\"H\": 1}, \"16\": {\"H\": 1}, \"17\": {\"H\": 1}, \"18\": {\"H\": 1}, \"19\": {\"H\": 1}, \"20\": {\"H\": 1}, \"21\": {\"H\": 1}, \"22\": {\"H\": 1}, \"23\": {\"H\": 1}, \"24\": {\"H\": 1}, \"25\": {\"H\": 1}, \"26\": {\"H\": 1}, \"27\": {\"H\": 1}, \"28\": {\"H\": 1}, \"29\": {\"H\": 1}, \"30\": {\"C\": 1}, \"31\": {\"C\": 1}, \"32\": {\"C\": 1}, \"33\": {\"C\": 1}, \"34\": {\"C\": 1}, \"35\": {\"C\": 1}, \"36\": {\"C\": 1}, \"37\": {\"C\": 1}, \"38\": {\"C\": 1}, \"39\": {\"C\": 1}, \"40\": {\"C\": 1}, \"41\": {\"C\": 1}, \"42\": {\"C\": 1}, \"43\": {\"C\": 1}, \"44\": {\"C\": 1}, \"45\": {\"C\": 1}, \"46\": {\"C\": 1}, \"47\": {\"C\": 1}, \"48\": {\"C\": 1}, \"49\": {\"C\": 1}, \"50\": {\"C\": 1}, \"51\": {\"C\": 1}, \"52\": {\"C\": 1}, \"53\": {\"C\": 1}, \"54\": {\"C\": 1}, \"55\": {\"C\": 1}, \"56\": {\"C\": 1}, \"57\": {\"C\": 1}, \"58\": {\"C\": 1}, \"59\": {\"C\": 1}, \"60\": {\"N\": 1}, \"61\": {\"N\": 1}, \"62\": {\"N\": 1}, \"63\": {\"N\": 1}, \"64\": {\"N\": 1}, \"65\": {\"N\": 1}, \"66\": {\"O\": 1}, \"67\": {\"O\": 1}, \"68\": {\"O\": 1}, \"69\": {\"O\": 1}, \"70\": {\"O\": 1}, \"71\": {\"O\": 1}, \"72\": {\"O\": 1}, \"73\": {\"O\": 1}, \"74\": {\"O\": 1}, \"75\": {\"O\": 1}, \"76\": {\"O\": 1}, \"77\": {\"O\": 1}}" energy=-520.18505859375 free_energy=-520.18505859375 stress="-0.006419176235795021 -0.001913904445245862 0.001538537791930139 -0.001913904445245862 -0.00620304187759757 0.002700690645724535 0.001538537791930139 0.002700690645724535 -0.003479181556031108" pbc="T T T"
Cu       1.16014448       1.12750982       3.55483772        0       0.11181828       0.14720888      -0.00491919
Cu       2.19371228       5.81840377       6.89231571        1      -0.07022735      -0.15293115       0.06872642
H        4.16374389       1.19244877       3.46165491        2       0.30884492       0.07818383      -0.32629821
H       -0.80918990       5.73564317       6.98108018        3       0.28832549       0.22165476      -0.04251095
H        3.34966473      -0.16271937       3.79332782        4       0.09434903       0.16945946      -0.06475297
H        0.00633175       7.09256192       6.65030917        5      -0.07020979       0.47830412       0.18262297
H        1.80501683       4.98174353       4.57355491        6      -0.22396564      -0.24704546      -0.10670985
H        1.55104286       1.96559024       5.88131140        7       0.04823364       0.07732011       0.05605764
H        1.81657284       6.64922477       4.50651874        8      -0.06585614       0.00452270      -0.06239833
H        1.54948326       0.29419235       5.95004427        9      -0.12144550       0.18340631      -0.03654197
H        4.71296593       3.38135258       1.07149050       10       0.06916052      -0.34104961       0.34436744
H       -1.35440715       3.56538937       9.36584136       11       0.07587859       0.19038136      -0.02193522
H        3.91557658       7.91793947       4.34345763       12       0.04537880      -0.20437208      -0.10149284
H       -0.55000316      -0.97495519       6.10364925       13      -0.05087800       0.13281147       0.06394434
H        3.69063566       3.61846610       4.10623540       14      -0.06776260      -0.02452670       0.04067213
H       -0.31545188       3.31571956       6.33171237       15      -0.01066400      -0.03015366       0.03575335
H        0.47652796       5.63455025       3.01717439       16      -0.05699551       0.17065117       0.00693007
H        2.88741171       1.29611859       7.43685665       17      -0.06655572      -0.04925809       0.02215022
H        2.47561283       3.08262177       1.92904915       18      -0.07227307      -0.25698179      -0.16988774
H        0.87873338       3.85662803       8.51647408       19       0.09819683       0.35914883       0.22184227
H        5.18335774       5.83320025       0.96070955       20       0.02539876      -0.03536506      -0.12278956
H       -1.82522888       1.09771252       9.48271655       21       0.04248763       0.06574735       0.03326222
H        3.03026446       2.64161267       9.65438699       22      -0.04234274       0.13112377       0.09642752
H        0.32561251       4.29605327       0.79357486       23      -0.06795535      -0.01654842      -0.34229004
H        0.82042451      -1.44898340       8.33642033       24      -0.08868098      -0.08869067       0.38350672
H        2.53038286       8.38426254       2.10758448       25       0.03574021       0.11679273      -0.05838490
H       -1.98026198       6.44768312       9.13266369       26      -0.04291223      -0.03245049      -0.02696701
H        5.33792424       0.49571331       1.31551971       27      -0.06478493      -0.24654515      -0.17644823
H       -0.70560935       9.32037825       1.12011108       28       0.10306063       0.14372410      -0.24053095
H        4.06503138      -2.37761256       9.33333772       29       0.13728455       0.22656170       0.06780854
C       -0.34661513       8.17916601       3.60866546       30      -0.31859794      -0.11979789      -0.05230733
C        3.70376875      -1.22905044       6.84403723       31       0.52811611      -0.41667885       0.08230826
C       -1.13953252       6.90757977       3.68393346       32      -0.33099329       0.17674276       0.22574615
C        4.50417839       0.03103822       6.76467024       33       0.01559182       0.38693348      -0.20722893
C        4.37406144       6.95024603       4.11797264       34       0.35958380       0.35763767      -0.13269675
C       -1.01322659      -0.00914991       6.31810704       35      -0.65474069      -0.72246528       0.24981952
C        3.65252038       5.76804032       4.29172504       36      -0.75590950       0.21250895       0.42527881
C       -0.29787480       1.16340702       6.13780766       37       0.72299576       0.46396658      -0.07248784
C        4.25118952       4.54790547       4.00008569       38       0.32527456      -0.53776747      -0.36413559
C       -0.88352413       2.38966904       6.45227381       39      -0.45369956       0.38435471       0.20002763
C       -1.27004695       4.49945377       3.55102927       40      -0.34038880       0.12227042       0.15921341
C        4.63384025       2.43508262       6.89818536       41       0.41217142       0.48169756      -0.11617462
C       -0.63193661       3.17255041       3.27654811       42      -0.77730137      -0.13911563      -0.26958391
C        3.99476162       3.76637823       7.18061846       43       0.36142635       0.10007942      -0.11233778
C       -0.54326259       5.68490864       3.40591642       44       0.56850749      -0.39545697      -0.27569121
C        3.90109786       1.26758263       7.04181220       45      -0.27683920      -0.62090564       0.16497144
C        2.30969381       2.28871700       1.18585863       46       0.35342425       0.68539178       0.39035684
C        1.04539959       4.65489482       9.25957710       47      -0.32373196      -0.62729603      -0.10345145
C        0.84380768      -0.59181428      10.31693328       48      -0.32317954      -0.34584165      -0.12380031
C        2.51484483       7.53462934       0.13576708       49       0.15983772       0.02710572      -0.00814061
C        1.58629366       0.62382782       9.90661328       50       0.01206136      -0.17815217       0.49619079
C        1.76721137       6.30223542       0.54171284       51       0.68793237       0.86293596      -0.14669868