76
Lattice="14.41066603 0.0 0.0 0.6596831023620947 15.9762930892972 0.0 0.6539003843616304 1.0726658340877824 17.017521465866015" Properties=species:S:1:pos:R:3:spacegroup_kinds:I:1:forces:R:3 spacegroup="P 1" unit_cell=conventional occupancy="_JSON {\"0\": {\"Zn\": 1}, \"1\": {\"Zn\": 1}, \"2\": {\"H\": 1}, \"3\": {\"H\": 1}, \"4\": {\"H\": 1}, \"5\": {\"H\": 1}, \"6\": {\"H\": 1}, \"7\": {\"H\": 1}, \"8\": {\"H\": 1}, \"9\": {\"H\": 1}, \"10\": {\"H\": 1}, \"11\": {\"H\": 1}, \"12\": {\"H\": 1}, \"13\": {\"H\": 1}, \"14\": {\"H\": 1}, \"15\": {\"H\": 1}, \"16\": {\"H\": 1}, \"17\": {\"H\": 1}, \"18\": {\"H\": 1}, \"19\": {\"H\": 1}, \"20\": {\"H\": 1}, \"21\": {\"H\": 1}, \"22\": {\"H\": 1}, \"23\": {\"H\": 1}, \"24\": {\"C\": 1}, \"25\": {\"C\": 1}, \"26\": {\"C\": 1}, \"27\": {\"C\": 1}, \"28\": {\"C\": 1}, \"29\": {\"C\": 1}, \"30\": {\"C\": 1}, \"31\": {\"C\": 1}, \"32\": {\"C\": 1}, \"33\": {\"C\": 1}, \"34\": {\"C\": 1}, \"35\": {\"C\": 1}, \"36\": {\"C\": 1}, \"37\": {\"C\": 1}, \"38\": {\"C\": 1}, \"39\": {\"C\": 1}, \"40\": {\"C\": 1}, \"41\": {\"C\": 1}, \"42\": {\"C\": 1}, \"43\": {\"C\": 1}, \"44\": {\"C\": 1}, \"45\": {\"C\": 1}, \"46\": {\"C\": 1}, \"47\": {\"C\": 1}, \"48\": {\"C\": 1}, \"49\": {\"C\": 1}, \"50\": {\"C\": 1}, \"51\": {\"C\": 1}, \"52\": {\"C\": 1}, \"53\": {\"C\": 1}, \"54\": {\"C\": 1}, \"55\": {\"C\": 1}, \"56\": {\"C\": 1}, \"57\": {\"C\": 1}, \"58\": {\"C\": 1}, \"59\": {\"C\": 1}, \"60\": {\"I\": 1}, \"61\": {\"I\": 1}, \"62\": {\"N\": 1}, \"63\": {\"N\": 1}, \"64\": {\"N\": 1}, \"65\": {\"N\": 1}, \"66\": {\"N\": 1}, \"67\": {\"N\": 1}, \"68\": {\"O\": 1}, \"69\": {\"O\": 1}, \"70\": {\"O\": 1}, \"71\": {\"O\": 1}, \"72\": {\"O\": 1}, \"73\": {\"O\": 1}, \"74\": {\"O\": 1}, \"75\": {\"O\": 1}}" energy=-511.53692626953125 free_energy=-511.53692626953125 stress="-0.0007471225108020008 0.0002113374648615718 -8.942626300267875e-05 0.0002113374648615718 -0.002444077981635928 0.0003545677463989705 -8.942626300267875e-05 0.0003545677463989705 -0.0010862566996365786" pbc="T T T"
Zn       7.87912622       9.97670544       8.56605374        0      -0.17504089      -0.13324302       0.20664020
Zn       7.90026550       7.11583446       8.39519717        1      -0.13562578       0.07243842       0.14414090
H        6.35188843      10.03102994      12.70386986        2      -0.48294464       0.72034186      -0.44381553
H        6.64100948      12.07135617      10.34328758        3       0.58920425       0.54020995      -0.80452263
H        6.03573126      11.38498420       3.75246467        4      -0.82487136       0.56488645      -0.98210090
H        6.10658031      10.54955651       5.31379280        5       0.07292029       0.01279163      -0.24685523
H        7.41333100      11.59874910       4.82895807        6      -0.07255021      -0.13831021      -0.14071228
H        9.72897395       5.69532089      13.30298065        7      -0.01421861      -0.19766118      -0.11206122
H        8.34010618       5.48215590      12.19315260        8      -0.40522885      -0.80807382      -0.44518238
H        9.66712737       6.53363188      11.73316742        9       0.33059683      -0.00817101      -0.54784060
H       10.40759522      15.43508355       7.28281096       10       0.57695645       0.83356774       0.30959076
H       10.39957490      13.92975369       6.41562158       11       0.90414906      -1.05670094      -0.67003191
H        9.21405694      15.15552232       6.03555747       12      -0.10377759       0.35799810      -0.38852641
H        9.38855205       7.00227191       4.26984225       13       0.03705534      -0.02102758       0.03523111
H        5.30964483       1.55337017       9.69249365       14       1.09400058       1.27863622       0.47581959
H        6.50902741       1.85283868      10.96306496       15      -0.02736682       0.26972494      -0.20870975
H        5.31558308       3.10532574      10.56376162       16      -0.65410423       1.05463099       0.55903071
H        6.69414043      10.29113159       1.78057362       17      -0.17481925       0.34994105      -0.06594756
H        9.05737716       6.77481038      15.19628325       18       0.11843728      -0.10657548       0.09482142
H        9.29990138      12.06779111       7.15942044       19       0.58656371      -0.73762703      -0.75120258
H        6.42692284       5.00472550       9.85684977       20      -0.22737469       0.28363311       0.32941747
H        8.97619921       2.45758271       6.51451741       21       0.43414807      -0.31751415      -0.48401174
H        6.75139615      14.56400475      10.47040829       22      -0.38831550       0.63412547       0.57388639
H        9.12662172       4.98776431       6.67751209       23       0.15625675       0.15468505      -0.20345870
C        8.19553781       8.66236387       5.91867793       24       0.75246894       4.64371967      -0.41591051
C        8.86458600      14.08035322       7.84137366       25      -0.14838685      -1.15025890      -0.18583989
C        7.68018215       2.30034686       8.19086860       26      -0.08744174      -0.58984810      -0.30441934
C        8.07806728      14.79107019       8.78886142       27       0.47122911      -0.33136714       0.09712350
C        8.46677057       3.01260941       7.27408126       28      -0.46919775      -0.06569490       0.22094482
C        7.31521057      14.07452741       9.71279943       29       0.10258774      -1.23803377      -0.44699594
C        8.52739324       4.37855443       7.33754243       30      -0.95410800       1.10816753       1.59960413
C        7.25196210      12.68427988       9.62087546       31      -0.63949704       0.16200340       1.09269154
C       10.42592669       8.43558158       8.84286175       32       3.60412169       5.60398102       0.26217055
C        5.28722529       8.55902775       8.12188148       33       0.34716263       3.44755030       0.10070604
C       11.92896414       8.46803818       8.81810322       34      -0.79693604       0.02525246      -0.00211599
C        7.51765974       8.32940742      11.06847448       35      -0.05700881       4.22611523       0.66444004
C        3.85213457       8.56993593       8.15339723       36      -0.95378411      -0.11261041       0.04913939
C       13.15102314       8.46447172       8.69580120       37      -1.53419292       0.02340351       0.15150091
C        2.62647837       8.52509185       8.26332720       38      -0.99192053       0.07138730       0.11211926
C       14.46379894       8.48355235       8.55257364       39      -0.80259699      -0.01721960       0.09598056
C        1.25371902       8.50641963       8.40341746       40       3.82079792       0.03728287      -0.39854866
C        8.16517434       8.76469600       4.42790219       41      -0.02056068      -1.18173170       0.20110081
C        7.61547654       8.34403036      12.54862817       42       0.45726985      -1.50733948       0.53060257
C        8.80773519       7.73868919       3.71895588       43      -0.07037425       0.03485388      -0.41076213
C        6.96580382       9.36277845      13.25486196       44       0.74205780      -0.87646890       0.83166146
C        8.69784845       7.62812425       2.32576016       45      -0.03829834       0.15991923       0.76129812
C        7.30451732       9.61156272       2.35805504       46       0.23234883      -0.82286024      -0.38215807
C        7.08229325       9.47940652      14.64856894       47       0.02548227      -0.29469875      -0.35129905
C        7.88652781       8.55388694       1.63392347       48      -0.08558635       0.01556459      -0.22377110
C        7.88357662       8.54626200      15.35741742       49       0.34441310      -0.59049648      -1.35386550
C        6.67699306      10.88199093       4.42485721       50       1.29138577      -1.39146256       1.09512496
C        9.07560003       6.16680361      12.56010805       51       0.11181551       0.80520087       0.77678430
C        9.79489399      14.69087358       6.82528015       52      -1.35457766       0.10680214       0.75676870
C        5.98189050       2.39322684      10.14977609       53      -0.26438931      -2.78321505      -1.05141509
C        8.47904549       7.48566898      14.61067067       54      -0.39692646       0.17303370       0.11641793
C        7.40266124       9.69444262       3.73913341       55      -0.92805302       2.17997169       0.32130376
C        8.36459223       7.30699428      13.22478768       56      -0.64123857       1.73973823       0.67572403
C        6.99379761       4.40943486       9.16343400       57       1.61063790      -0.39422801      -1.77220845
C        8.74981906      12.65193200       7.84862831       58      -0.46483389       2.64687538       0.83003449
C        6.91662046       3.00252497       9.13945614       59      -0.69312966       0.36248302       0.83801293
I        5.91113417      10.92423949      15.55825934       60      -0.19736078       0.31506234       0.21789047
I        9.80130650       6.12356230       1.45558122       61       0.29853159      -0.42152351      -0.33799371
N        7.60310976       8.53589402       0.24893031       62       0.06192797       3.05541611       1.82086647
N        8.17869328       8.52463899      16.71571190       63      -0.04579514      -2.65991068      -1.07458353
N        7.80923971       5.08704069       8.30121036       64       0.05781915      -1.09671044      -0.44608912
N        7.96170223      12.01839408       8.70905490       65      -0.13335842      -1.03444862      -0.06984453
N        7.67355405       0.86547593       7.97746469       66       0.45413542       2.42755795      -0.93645316
N        8.07651946      16.19289368       8.99362072       67      -0.39672914      -1.42755210       0.96573484
O        8.24206227       9.82086117       6.55223094       68      -0.33232662      -1.60462832      -0.67625910
O        7.52132099       7.28428792      10.42387814       69       0.06125374      -2.29881430      -1.32534456
O        8.29743559       7.55795309       6.43820868       70      -0.10053418      -2.68654442       1.23800290
O        7.47886662       9.54995689      10.57617341       71       0.05760169      -1.32375586      -0.15970835
O        9.90480045       9.62928231       8.89140133       72       0.12646842      -1.46553731      -0.10010273
O        5.86950060       7.46554913       8.07800808       73       0.84300172      -1.60771215      -0.02153732
O        9.92959089       7.34627142       8.80997763       74      -2.62985063      -4.18613529      -0.21073523
O        5.85179577       9.75680561       8.15624382       75      -0.85957515      -1.81324279       0.00061193
76
Lattice="14.41066603 0.0 0.0 0.6596831023620947 15.9762930892972 0.0 0.6539003843616304 1.0726658340877824 17.017521465866015" Properties=species:S:1:pos:R:3:spacegroup_kinds:I:1:forces:R:3 spacegroup="P 1" unit_cell=conventional occupancy="_JSON {\"0\": {\"Zn\": 1}, \"1\": {\"Zn\": 1}, \"2\": {\"H\": 1}, \"3\": {\"H\": 1}, \"4\": {\"H\": 1}, \"5\": {\"H\": 1}, \"6\": {\"H\": 1}, \"7\": {\"H\": 1}, \"8\": {\"H\": 1}, \"9\": {\"H\": 1}, \"10\": {\"H\": 1}, \"11\": {\"H\": 1}, \"12\": {\"H\": 1}, \"13\": {\"H\": 1}, \"14\": {\"H\": 1}, \"15\": {\"H\": 1}, \"16\": {\"H\": 1}, \"17\": {\"H\": 1}, \"18\": {\"H\": 1}, \"19\": {\"H\": 1}, \"20\": {\"H\": 1}, \"21\": {\"H\": 1}, \"22\": {\"H\": 1}, \"23\": {\"H\": 1}, \"24\": {\"C\": 1}, \"25\": {\"C\": 1}, \"26\": {\"C\": 1}, \"27\": {\"C\": 1}, \"28\": {\"C\": 1}, \"29\": {\"C\": 1}, \"30\": {\"C\": 1}, \"31\": {\"C\": 1}, \"32\": {\"C\": 1}, \"33\": {\"C\": 1}, \"34\": {\"C\": 1}, \"35\": {\"C\": 1}, \"36\": {\"C\": 1}, \"37\": {\"C\": 1}, \"38\": {\"C\": 1}, \"39\": {\"C\": 1}, \"40\": {\"C\": 1}, \"41\": {\"C\": 1}, \"42\": {\"C\": 1}, \"43\": {\"C\": 1}, \"44\": {\"C\": 1}, \"45\": {\"C\": 1}, \"46\": {\"C\": 1}, \"47\": {\"C\": 1}, \"48\": {\"C\": 1}, \"49\": {\"C\": 1}, \"50\": {\"C\": 1}, \"51\": {\"C\": 1}, \"52\": {\"C\": 1}, \"53\": {\"C\": 1}, \"54\": {\"C\": 1}, \"55\": {\"C\": 1}, \"56\": {\"C\": 1}, \"57\": {\"C\": 1}, \"58\": {\"C\": 1}, \"59\": {\"C\": 1}, \"60\": {\"I\": 1}, \"61\": {\"I\": 1}, \"62\": {\"N\": 1}, \"63\": {\"N\": 1}, \"64\": {\"N\": 1}, \"65\": {\"N\": 1}, \"66\": {\"N\": 1}, \"67\": {\"N\": 1}, \"68\": {\"O\": 1}, \"69\": {\"O\": 1}, \"70\": {\"O\": 1}, \"71\": {\"O\": 1}, \"72\": {\"O\": 1}, \"73\": {\"O\": 1}, \"74\": {\"O\": 1}, \"75\": {\"O\": 1}}" energy=-510.5111999511719 free_energy=-510.5111999511719 stress="-0.0011358048068359494 0.001479502534493804 -0.00024422386195510626 0.001479502534493804 -0.0031650408636778593 -0.0009535630233585835 -0.00024422386195510626 -0.0009535630233585835 -0.0011896337382495403" pbc="T T T"
Zn       7.90759505       9.94713753       8.53811196        0      -0.33033222      -0.06883982       0.42645633
Zn       7.92900844       7.08736549       8.38030225        1      -0.12618133       0.45411256      -0.11226700
H        6.35996335      10.04985003      12.67700128        2       0.31743199      -0.21509844       0.14041157
H        6.63557823      12.08169208      10.37231806        3       1.17661703       0.60629547      -1.58384049
H        6.01520065      11.38550654       3.74121721        4       0.02425221      -0.00479271      -0.35380015
H        6.07671402      10.54860594       5.34340201        5       1.09526956       0.24900153      -1.58154035
H        7.44254048      11.57268348       4.80865361        6      -0.15914242      -0.23196764      -0.22953926
H        9.71689509       5.67016051      13.27346647        7       0.40926856      -0.37610209       0.30728850
H        8.31777682       5.46875865      12.21506420        8       0.04365807      -0.60973287      -0.57668889
H        9.69397806       6.50789966      11.70517922        9       0.19703858      -0.08339872      -0.55664194
H       10.39751650      15.40524485       7.25509124       10       1.15098691       1.35296440       0.63543379
H       10.37386387      13.91555551       6.43513165       11       2.58970976      -2.98744535      -1.78695190
H        9.24283711      15.13420831       6.01083080       12      -0.12599657       0.27939200      -0.44910878
H        9.36381837       6.98773648       4.25275175       13       0.47495371      -0.44530001       0.23134889
H        5.28845915       1.53759225       9.72166982       14       1.02708340       0.93943000      -0.01139602
H        6.48890850       1.85329870      10.93476853       15       0.39706644      -0.11369468       0.31592682
H        5.29895038       3.07577075      10.55293929       16      -0.18740089       0.82573879       0.21737595
H        6.71825877      10.26485139       1.75335144       17      -0.12323132       0.26341847      -0.03429803
H        9.02891248       6.76998455      15.20054418       18       0.73095882      -0.84686017       0.39651096
H        9.32828804      12.09606372       7.13531220       19       1.27912509      -1.70545936      -1.63488257
H        6.40937373       4.97841269       9.87373065       20       0.49514884      -0.08916428      -0.53353208
H        8.95004965       2.47552293       6.52229977       21       2.09638691      -2.10295987      -3.01490068
H        6.77630739      14.53473322      10.44096707       22      -0.39980257       0.63428837       0.60835111
H        9.15488036       5.00242380       6.66565973       23      -0.02659233      -0.34404469      -0.07833840
C        8.20802054       8.68998485       5.89658368       24       1.25621152       0.89682782      -0.02979940
C        8.89118331      14.05485215       7.81168449       25      -0.42111015      -1.05943668       0.00109913
C        7.70664354       2.27220549       8.16243508       26      -0.33534092      -0.47264367      -0.05522060
C        8.10497150      14.77144916       8.75926291       27       0.36697853      -0.81664002       0.21010002
C        8.49565087       2.98451248       7.24431612       28      -2.12494898       2.00432634       2.72743917
C        7.34457721      14.04583753       9.68747555       29       0.26488698      -1.08817244      -0.73151529
C        8.55734064       4.35148306       7.31000682       30      -0.87128246       2.04597545       1.64731407
C        7.28054538      12.65442022       9.59116012       31      -1.18008494       0.29776984       1.92056155
C       10.41435864       8.45935873       8.82865489       32       5.01529408       1.15006554       0.17854275
C        5.30015645       8.57850471       8.11178068       33       1.39390063       0.81019610      -0.16861385
C       11.95834624       8.44939089       8.79983919       34      -1.82822680       0.14945340       0.05375876
C        7.54618778       8.30415289      11.04232013       35      -0.05094926       4.20941734       0.47107527
C        3.87763288       8.59792521       8.15173035       36      -3.46072841      -0.47401163       0.19447158
C       13.17406957       8.43884720       8.66641241       37      -3.09005070      -0.00859569       0.34175837
C        2.62621690       8.51400582       8.24082144       38       0.10075989       0.18783778       0.07553310
C       14.45352361       8.45446333       8.52267755       39      -0.72013581      -0.05652271       0.10126157
C        1.22454287       8.47658222       8.37358675       40       7.02487850       0.16556859      -0.73896813
C        8.19435601       8.74087054       4.39825367       41      -0.82001472       0.10530493       0.47654444
C        7.64489533       8.31856733      12.51884067       42       0.11932385      -1.20945942       0.53544748
C        8.83738231       7.73428599       3.69582769       43      -0.41502148       0.43364215      -0.56176317
C        6.99545863       9.33956685      13.22625955       44      -0.01693290       0.03332457       0.43563607
C        8.72762163       7.65673322       2.29917293       45       0.24609208      -0.46898669       1.23309219
C        7.33322343       9.58205613       2.32967176       46      -0.48359358       0.03202125      -0.28298753
C        7.10705099       9.45010471      14.62481987       47       0.01194920      -0.23494965      -0.63134116
C        7.91606756       8.54187480       1.60643750       48      -0.37956992       0.13381526      -0.62946677
C        7.91268436       8.51716740      15.32750828       49      -0.02494928      -0.33707675      -1.44026947
C        6.70642573      10.85382210       4.39550330       50      -0.61423939      -0.75919199       1.88820910
C        9.09792884       6.14942603      12.53306931       51      -0.84125805       0.60797942       0.42334664
C        9.82283237      14.66159081       6.79587100       52      -3.41347933       1.57325792       1.51087070
C        5.98068158       2.36325914      10.12122449       53      -0.55617702      -1.55102849      -1.01801050
C        8.50665531       7.45923398      14.58551806       54      -1.16754079       0.78798008      -0.39892310
C        7.40282635       9.67447572       3.71057478       55      -0.18239279       1.43948293       0.33761698
C        8.36342229       7.27719863      13.19594002       56       0.14727291       1.68821692       1.01864302
C        7.02179793       4.41920952       9.13629199       57       1.02590477      -0.97192621      -1.10515571
C        8.77746328      12.62265317       7.82008923       58      -1.21101153       3.78416276       1.81762457
C        6.94643215       2.97306564       9.11416959       59      -0.93549013       1.28863931       0.80238211
I        5.92379906      10.89444335      15.52829200       60      -0.14963171       0.25986657       0.21333084
I        9.78316302       6.15279124       1.47794500       61       0.79215854      -1.09288979      -0.77500427
N        7.63254821       8.50631011       0.21931503       62       0.18322539       2.96203709       1.56519580
N        8.16705261       8.49475865      16.68744329       63       0.12736782      -2.46173835      -0.55618930
N        7.83905333       5.11013105       8.27601905       64      -0.16788694      -2.71659970      -0.30493861
N        7.99156251      11.99205117       8.68526058       65      -0.10634770      -1.36857700      -0.18096429
N        7.67666020       0.83606594       7.94750569       66       0.62276453       2.67194819      -1.31574178
N        8.10611565      16.16427722       8.96454208       67      -0.43914253      -1.37008011       1.30516934
O        8.27149627       9.79819473       6.54749515       68      -0.35311243      -0.45731634      -0.44858074
O        7.54998242       7.25638098      10.39924715       69       0.02627750      -2.00731635      -1.14207673
O        8.32489643       7.53945976       6.40828019       70      -0.36626714      -0.61122185       0.43494451
O        7.50733242       9.53322386      10.55041024       71       0.08328472      -1.58727145      -0.17080849
O        9.93287961       9.60138641       8.89982653       72      -1.28207576       1.02396190      -0.05835292
O        5.89839692       7.45348360       8.04838034       73      -0.29154801      -0.03482538       0.14656880
O        9.95671960       7.32433921       8.78024437       74      -2.08099794      -2.32488728      -0.17343736
O        5.88091724       9.73327892       8.12733516       75      -0.45326740      -0.58149493       0.10921357
76
Lattice="14.41066603 0.0 0.0 0.6596831023620947 15.9762930892972 0.0 0.6539003843616304 1.0726658340877824 17.017521465866015" Properties=species:S:1:pos:R:3:spacegroup_kinds:I:1:forces:R:3 spacegroup="P 1" unit_cell=conventional occupancy="_JSON {\"0\": {\"Zn\": 1}, \"1\": {\"Zn\": 1}, \"2\": {\"H\": 1}, \"3\": {\"H\": 1}, \"4\": {\"H\": 1}, \"5\": {\"H\": 1}, \"6\": {\"H\": 1}, \"7\": {\"H\": 1}, \"8\": {\"H\": 1}, \"9\": {\"H\": 1}, \"10\": {\"H\": 1}, \"11\": {\"H\": 1}, \"12\": {\"H\": 1}, \"13\": {\"H\": 1}, \"14\": {\"H\": 1}, \"15\": {\"H\": 1}, \"16\": {\"H\": 1}, \"17\": {\"H\": 1}, \"18\": {\"H\": 1}, \"19\": {\"H\": 1}, \"20\": {\"H\": 1}, \"21\": {\"H\": 1}, \"22\": {\"H\": 1}, \"23\": {\"H\": 1}, \"24\": {\"C\": 1}, \"25\": {\"C\": 1}, \"26\": {\"C\": 1}, \"27\": {\"C\": 1}, \"28\": {\"C\": 1}, \"29\": {\"C\": 1}, \"30\": {\"C\": 1}, \"31\": {\"C\": 1}, \"32\": {\"C\": 1}, \"33\": {\"C\": 1}, \"34\": {\"C\": 1}, \"35\": {\"C\": 1}, \"36\": {\"C\": 1}, \"37\": {\"C\": 1}, \"38\": {\"C\": 1}, \"39\": {\"C\": 1}, \"40\": {\"C\": 1}, \"41\": {\"C\": 1}, \"42\": {\"C\": 1}, \"43\": {\"C\": 1}, \"44\": {\"C\": 1}, \"45\": {\"C\": 1}, \"46\": {\"C\": 1}, \"47\": {\"C\": 1}, \"48\": {\"C\": 1}, \"49\": {\"C\": 1}, \"50\": {\"C\": 1}, \"51\": {\"C\": 1}, \"52\": {\"C\": 1}, \"53\": {\"C\": 1}, \"54\": {\"C\": 1}, \"55\": {\"C\": 1}, \"56\": {\"C\": 1}, \"57\": {\"C\": 1}, \"58\": {\"C\": 1}, \"59\": {\"C\": 1}, \"60\": {\"I\": 1}, \"61\": {\"I\": 1}, \"62\": {\"N\": 1}, \"63\": {\"N\": 1}, \"64\": {\"N\": 1}, \"65\": {\"N\": 1}, \"66\": {\"N\": 1}, \"67\": {\"N\": 1}, \"68\": {\"O\": 1}, \"69\": {\"O\": 1}, \"70\": {\"O\": 1}, \"71\": {\"O\": 1}, \"72\": {\"O\": 1}, \"73\": {\"O\": 1}, \"74\": {\"O\": 1}, \"75\": {\"O\": 1}}" energy=-508.08660888671875 free_energy=-508.08660888671875 stress="-0.001558240270242095 0.0024386527948081493 -0.0005962974391877651 0.0024386527948081493 -0.005020215176045895 -0.0015915937256067991 -0.0005962974391877651 -0.0015915937256067991 -0.001714750425890088" pbc="T T T"
Zn       7.93667741       9.92898087       8.51012729        0      -0.47759321      -0.13159552       0.45620283
Zn       7.95715240       7.06011650       8.35067363        1      -0.14605998       0.69267565      -0.03510256
H        6.35978435      10.02728163      12.65116043        2       0.61213642      -0.52824724       0.30788243
H        6.61009048      12.10546645      10.35597401        3       1.55754852       0.38013861      -1.86371875
H        6.01998246      11.38605963       3.71242488        4       0.58836007      -0.50945091       0.06063607
H        6.04759908      10.52981908       5.34233061        5       1.67851019       0.32057127      -2.21020174
H        7.44405687      11.54319776       4.77886687        6       0.21684518       0.04692554       0.02018663
H        9.70581688       5.68197654      13.24885361        7       1.19204295      -1.07070315       1.14997149
H        8.30458486       5.49229626      12.24070676        8      -0.26881421      -1.24151635      -0.98288357
H        9.72136884       6.48073039      11.68438111        9       0.17994753      -0.14734870      -0.72769892
H       10.42020729      15.37637607       7.22571904       10       1.36033261       1.51601982       0.71930486
H       10.34861984      13.89534859       6.44711345       11       4.28192282      -5.34966516      -2.91938496
H        9.26429680      15.10662102       5.98367131       12       0.03611824       0.16886228      -0.30536214
H        9.34553342       6.98112357       4.26612081       13       0.80766320      -0.88959712       0.30702215
H        5.25885290       1.52507765       9.75100922       14       1.03167856       0.62576830      -0.47789866
H        6.46097662       1.82430463      10.93702961       15       0.40470284       0.08713193       0.04829063
H        5.27044153       3.05062327      10.52818601       16       0.41638646       0.53026575      -0.10422060
H        6.74601686      10.25354067       1.73106080       17       0.02049765       0.02275592       0.03323095
H        8.99911123       6.74542156      15.17119242       18       1.41998041      -1.76467919       1.12270784
H        9.35517697      12.07601894       7.11151432       19       1.50530374      -1.93606377      -1.91899920
H        6.42153805       4.98422442       9.88432695       20       1.14813769      -0.84370553      -1.42581999
H        8.92165981       2.46152537       6.50749001       21       3.06947541      -3.28940487      -4.81403923
H        6.78705902      14.50541081      10.41521651       22      -0.12748650       0.45819622       0.26631379
H        9.18460230       5.01753156       6.63763379       23      -0.41130114      -1.01569963       0.29455152
C        8.23312378       8.68905384       5.86903506       24       1.29020834       0.06502823      -0.37116951
C        8.91988267      14.03749089       7.78356287       25      -0.59458041      -1.47956336       0.16674034
C        7.73536119       2.24278126       8.14002857       26      -0.22633791      -0.14733398      -0.17963743
C        8.13407329      14.74310119       8.72968505       27       0.29168200      -0.65604258       0.33950740
C        8.52496088       2.96798590       7.21506008       28      -3.26847863       2.45773244       4.65697241
C        7.37381678      14.01651572       9.65790383       29       0.05381925      -0.72160852      -0.47975516
C        8.58606165       4.32257209       7.28408078       30      -0.45699096       3.44871879       1.22327650
C        7.30771392      12.63010897       9.56232617       31      -1.52960527       0.37529024       2.11871076
C       10.41631444       8.48500612       8.83675006       32       6.50451708      -5.32847548      -0.61351985
C        5.31693333       8.60781971       8.11887437       33       2.11015201      -2.03870392      -0.66200775
C       11.98699677       8.42328455       8.77678036       34      -2.45283127       0.30398661       0.34829071
C        7.57362917       8.27478050      11.04606447       35      -0.08663525       3.78633642      -1.37478220
C        3.90692897       8.58412528       8.16301354       36      -6.39687014      -0.51829064       0.55341363
C       13.20131901       8.41111174       8.63744161       37      -6.51769352      -0.06821462       0.71900052
C        2.61474319       8.49326943       8.26750427       38       2.06332302       0.31926996      -0.34480426
C       14.42547959       8.42937824       8.49397455       39       2.57311463      -0.04053339      -0.30336589
C        1.19540008       8.45238618       8.34661304       40       8.38238335       0.20577486      -0.64770770
C        8.22369847       8.72979106       4.37546533       41      -0.70617223      -0.19838345      -0.04419565
C        7.67239495       8.29429644      12.49036159       42       0.16603571      -1.25428379       1.23857975
C        8.86416135       7.70729104       3.66658498       43      -1.06991076       1.44132900      -0.07182088
C        7.01617525       9.31005001      13.19742039       44      -0.30690506       0.38761675       0.35799855
C        8.75686847       7.62860170       2.27029284       45      -0.28073677       0.25317934       1.86533809
C        7.36146016       9.55287902       2.30011097       46      -0.66492295       0.33490112      -0.21171132
C        7.12778282       9.42014186      14.59550697       47       0.11691921      -0.25222784      -0.62908077
C        7.94524700       8.51215590       1.57963377       48      -0.69724441       0.39348423      -0.73454952
C        7.94150345       8.49148742      15.29929686       49      -0.29833460      -0.28878507      -1.76698327
C        6.73331621      10.82425038       4.36683665       50      -2.15433812      -0.45451924       1.84353518
C        9.12244054       6.12072481      12.50369513       51      -1.31919456       1.62132001       0.07053852
C        9.85225674      14.63318863       6.77263468       52      -5.23977947       3.92679548       2.15373397
C        5.98157215       2.33346743      10.09283761       53      -0.74972188      -0.86469221      -0.25064385
C        8.53623223       7.42976462      14.55632987       54      -1.93295181       1.73736453      -1.05174851
C        7.42779755       9.65507479       3.68512477       55      -0.11214120       1.26775670       0.12639603
C        8.38872824       7.24744416      13.16623619       56       0.24791393       2.08985424       1.16328287