92
Lattice="9.01668679 0.0 0.0 -0.5449909865126846 9.195070816874185 0.0 -3.580174842348846 -3.9897958499578836 11.70965691829775" Properties=species:S:1:pos:R:3:spacegroup_kinds:I:1:forces:R:3 spacegroup="P 1" unit_cell=conventional occupancy="_JSON {\"0\": {\"Cu\": 1}, \"1\": {\"Cu\": 1}, \"2\": {\"P\": 1}, \"3\": {\"P\": 1}, \"4\": {\"H\": 1}, \"5\": {\"H\": 1}, \"6\": {\"H\": 1}, \"7\": {\"H\": 1}, \"8\": {\"H\": 1}, \"9\": {\"H\": 1}, \"10\": {\"H\": 1}, \"11\": {\"H\": 1}, \"12\": {\"H\": 1}, \"13\": {\"H\": 1}, \"14\": {\"H\": 1}, \"15\": {\"H\": 1}, \"16\": {\"H\": 1}, \"17\": {\"H\": 1}, \"18\": {\"H\": 1}, \"19\": {\"H\": 1}, \"20\": {\"H\": 1}, \"21\": {\"H\": 1}, \"22\": {\"H\": 1}, \"23\": {\"H\": 1}, \"24\": {\"H\": 1}, \"25\": {\"H\": 1}, \"26\": {\"H\": 1}, \"27\": {\"H\": 1}, \"28\": {\"H\": 1}, \"29\": {\"H\": 1}, \"30\": {\"H\": 1}, \"31\": {\"H\": 1}, \"32\": {\"H\": 1}, \"33\": {\"H\": 1}, \"34\": {\"H\": 1}, \"35\": {\"H\": 1}, \"36\": {\"H\": 1}, \"37\": {\"H\": 1}, \"38\": {\"H\": 1}, \"39\": {\"H\": 1}, \"40\": {\"H\": 1}, \"41\": {\"H\": 1}, \"42\": {\"C\": 1}, \"43\": {\"C\": 1}, \"44\": {\"C\": 1}, \"45\": {\"C\": 1}, \"46\": {\"C\": 1}, \"47\": {\"C\": 1}, \"48\": {\"C\": 1}, \"49\": {\"C\": 1}, \"50\": {\"C\": 1}, \"51\": {\"C\": 1}, \"52\": {\"C\": 1}, \"53\": {\"C\": 1}, \"54\": {\"C\": 1}, \"55\": {\"C\": 1}, \"56\": {\"C\": 1}, \"57\": {\"C\": 1}, \"58\": {\"C\": 1}, \"59\": {\"C\": 1}, \"60\": {\"C\": 1}, \"61\": {\"C\": 1}, \"62\": {\"C\": 1}, \"63\": {\"C\": 1}, \"64\": {\"C\": 1}, \"65\": {\"C\": 1}, \"66\": {\"C\": 1}, \"67\": {\"C\": 1}, \"68\": {\"C\": 1}, \"69\": {\"C\": 1}, \"70\": {\"C\": 1}, \"71\": {\"C\": 1}, \"72\": {\"C\": 1}, \"73\": {\"C\": 1}, \"74\": {\"C\": 1}, \"75\": {\"C\": 1}, \"76\": {\"C\": 1}, \"77\": {\"C\": 1}, \"78\": {\"C\": 1}, \"79\": {\"C\": 1}, \"80\": {\"C\": 1}, \"81\": {\"C\": 1}, \"82\": {\"C\": 1}, \"83\": {\"C\": 1}, \"84\": {\"C\": 1}, \"85\": {\"C\": 1}, \"86\": {\"C\": 1}, \"87\": {\"C\": 1}, \"88\": {\"Br\": 1}, \"89\": {\"Br\": 1}, \"90\": {\"N\": 1}, \"91\": {\"N\": 1}}" energy=-596.982666015625 free_energy=-596.982666015625 stress="0.0012749831657856703 7.443121285177767e-05 -0.003886082209646702 7.443121285177767e-05 -0.00576363829895854 -0.0008666054345667362 -0.003886082209646702 -0.0008666054345667362 0.0018112777033820748" pbc="T T T"
Cu       8.17336028      -0.31868305       1.10489097        0       0.33815229       0.09257744      -0.21313331
Cu      -3.27719903       5.50708862      10.60584965        1      -0.37218267      -0.17745061       0.11003598
P        7.85943297       0.86628502       2.92205721        2      -0.33924076       0.90921152       1.18007898
P       -2.94337274       4.28818366       8.77275619        3      -0.28273755      -0.45189616      -0.77758193
H        7.63395201       5.96769325       1.63109855        4       0.10899737       0.02925567       0.14802349
H       -2.78057148      -0.77413548      10.09140333        5       0.39451686       0.01354174       0.04744626
H        6.22584333       4.02852704       1.19755058        6       0.11565831      -0.65535992       0.26070243
H       -1.33236309       1.19983770      10.51256731        7       0.04279418      -0.66600078       0.11579518
H       -0.15641006       2.75580431      10.94647509        8       0.87028009      -0.45448673       0.52022225
H        5.02832745       2.45371608       0.72316932        9       0.18343484      -0.04705326       0.04430297
H        1.43013049       4.51911872      11.47746343       10      -0.29047540       1.36626589      -0.47954816
H        3.47453730       0.63945551       0.23449017       11      -0.06645165       0.28959909      -0.07976618
H        1.07405743      -0.74546067       3.75929307       12       0.41107965       0.01056166      -0.61064482
H        3.78995425       5.91635017       7.93697845       13      -0.48744592       0.01674767       0.74351728
H        1.75069545      -1.82820396       5.87025756       14       0.08764260      -0.01130106      -0.00526217
H        3.14107798       7.01399608       5.80877048       15       0.89119816      -0.53675795       0.32473403
H        0.20743926      -1.72673920       7.82888346       16       0.28036010      -0.27799553       0.46962827
H        4.67813695       6.94959433       3.85849111       17      -0.16665727      -0.00252985      -0.02749643
H       -1.98996595      -0.58901568       7.61856229       18      -0.88810349      -0.14588030       1.28035903
H        6.90447257       5.78902539       4.08633094       19      -0.03808178      -0.00445796      -0.22496028
H        6.41663057       0.51474158       5.54534947       20      -1.47201157       0.79711139      -0.12379877
H       -1.53392620       4.64082297       6.14642909       21       0.93455362      -0.42575312       0.14443851
H        6.41106904       3.37514782       3.81549884       22      -0.34803018      -0.37550572       0.04899110
H       -1.50029727       1.80666198       7.86446735       23      -0.68486279      -0.35044056      -0.16465199
H        4.01235281       3.86970888       4.15666916       24      -0.18438002       0.22252089      -0.00335906
H        0.89381909       1.36308983       7.56596060       25       0.40196139      -1.28710794      -0.38691977
H        2.34047308       2.08590750       3.70675687       26      -0.05011386      -0.12620196      -0.04311832
H        2.58272694       3.08833490       8.05113547       27      -0.79528892       0.46695328      -0.03200713
H        3.06517430      -0.12020233       2.84767188       28      -0.66330278      -0.49372938      -0.21906403
H        1.86030497       5.37021372       8.85356383       29      -0.95460367      -0.92691851      -0.12324101
H        5.43980339      -0.57487381       2.47390905       30       0.46754539      -1.11030674      -0.27500206
H       -0.58185385       5.79082811       9.23946716       31      -0.27382964       0.44189161       0.04750873
H       -0.08778968       2.78509828       1.05476160       32      -0.26742685      -0.55649734      -1.49603271
H        4.98616612       2.42478425      10.67692094       33      -0.07139473      -0.17491165       0.37126377
H        1.06484466       4.96581219       1.28439696       34       0.11795210       0.20088635      -0.46030644
H        3.81392665       0.23878842      10.45529647       35       0.21658762       0.09196333      -0.45684296
H        1.56501906       5.86623398       3.51115531       36       0.73244327       1.31114078       0.04674260
H        3.28549660      -0.68804860       8.21050935       37      -0.00206495       0.23470281      -0.01834170
H        0.94754900       4.58238969       5.52482562       38       0.25883082       0.33911830       0.50110078
H        3.94465031       0.62636978       6.14153082       39      -0.02340277       0.28164813       0.92019379
H       -0.25319148       2.41875089       5.32580059       40       0.21824770       0.41245452       0.05345186
H        5.13099052       2.78573741       6.36937698       41      -0.09987473      -0.45895699       0.36585176
C        6.67426015       6.09271361       1.14003086       42       0.20063597      -0.55513841      -0.13229106
C       -1.79700553      -0.90282020      10.57224044       43      -0.98643363       0.25578904      -0.01487808
C        5.87689266       4.98738609       0.88754327       44      -0.18620223       1.15877128      -0.35986948
C       -1.00237784       0.19368165      10.84395576       45       0.29688326       1.27810740      -0.14547797
C        4.66845795       5.18706273       0.17102452       46       0.25183436      -1.63543797       0.37753910
C        0.21240322       0.06539715      11.53998292       47      -0.09076098      -1.72514272       0.09194936
C        0.78316283       2.46958565      11.49401485       48      -0.79108691       2.59934902      -0.72018230
C        4.11632911       2.69025549       0.19038324       49       0.10289708       1.55489373      -0.08928573
C        5.24193593       7.53138801       0.06830569       50      -0.99134016      -2.08084083      -0.11610703
C       -0.32839213      -2.32396290      11.62503926       51      -0.48335665      -0.50911653      -0.00994553
C       -0.77751185       0.04549037       4.51883174       52      -0.30590698      -1.03814864       0.52404404
C        5.67194651       5.17893564       7.21782197       53       1.00690722       0.09115598      -0.56431949
C        0.42630162      -0.68414659       4.60619913       54      -0.55718243       0.48066351       0.70457613
C        4.46502189       5.86343875       7.11740582       55       0.44122183      -0.08056818      -0.78381574
C        0.80856811      -1.28867429       5.80673506       56      -0.30232358      -0.07517788      -0.11520950
C        4.12289854       6.46577267       5.91532521       57      -1.54377222       1.05817688      -0.87738824
C       -0.04684157      -1.26072942       6.89802472       58      -1.44378257       0.68346643      -0.08454657
C        4.93765678       6.44872675       4.78479936       59       1.12486589      -0.59135842       0.63071907
C       -1.33042246      -0.62887194       6.80573842       60       2.14086390      -0.21021387      -1.34523392
C        6.18959747       5.79529216       4.90437956       61      -0.29764977       0.24306779       0.08625416
C       -1.68463920       0.02404367       5.63407523       62       2.19215322      -0.56934458      -0.88764226
C        6.56878826       5.16919884       6.08977247       63      -1.95163178       0.42454338       0.73394430
C        6.08735851       1.35959054       3.18829088       64       0.26618198      -1.69999599      -0.79341179
C       -1.20794725       3.83320814       8.53061593       65      -0.57108653       1.11942458       0.67632520
C        5.65588201       2.59016366       3.63213064       66       0.79237294       1.62599719       0.13673723
C       -0.81939544       2.59925964       8.07133893       67       2.32384729      -0.88929498      -0.13849840
C        4.30510250       2.89695603       3.78649232       68       0.54959059      -0.84660304       0.12382523
C        0.58676831       2.30404379       7.91858777       69      -1.93445563       2.22063303       0.34400818
C        3.39686422       1.87304528       3.54067336       70      -1.20737290       0.97610152       0.30049410
C        1.49587818       3.33407436       8.15117807       71       1.10044885      -0.95524383       0.14403510
C        3.77694382       0.63922310       3.07343604       72       1.85185063      -0.56057918       0.07235865
C        1.08065479       4.57213246       8.63455549       73       0.44771305       1.38448215       0.07926913
C        5.15277745       0.34010735       2.90967331       74      -1.32618594       1.97049153       0.33340439
C       -0.28081522       4.85075239       8.82128719       75       1.22308731      -1.01992762      -0.24893489
C       -0.28224229       2.45585862       3.19274486       76       0.91694218       0.95626533      -1.41717911
C        5.14928928       2.73106002       8.54608417       77      -0.40241849      -0.77894151       0.81617737
C        0.12664982       3.17053495       2.00118173       78       0.23823753       1.06196654       3.29051018
C        4.75430086       1.98382137       9.71750452       79       0.96230692       1.38738549      -1.89603996
C        0.77754416       4.42084467       2.16558108       80      -0.56446260      -1.11888933      -0.81036675
C        4.13649458       0.76882996       9.53824672       81      -0.72949457      -0.43172473       2.25311184
C        1.07143480       4.94634334       3.40633793       82      -0.44697210      -1.10450816       0.07917732
C        3.79240242       0.27765955       8.31197117       83       0.01468993      -0.26293582      -1.35929155
C        0.73627586       4.22047014       4.53523630       84      -0.52972877      -0.46076772       0.59986192
C        4.15022312       1.02410987       7.17461929       85      -0.44375607      -1.66940045      -1.42749190
C        0.05068821       3.01377003       4.45837034       86      -0.60572398      -1.16244304      -0.85869712
C        4.85697953       2.19016030       7.25928941       87       0.61165476       1.91705537       0.69398791
Br       3.99947170      -2.70219354      10.85488459       88       0.00434893      -0.04748800       0.13977525
Br       0.87537733       7.92528487       0.85389723       89       0.02560908       0.00699550      -0.11321050
N        6.38262264       7.33293230       0.70453666       90       0.81897807       0.29049331       0.65411901
N       -1.52513322      -2.13593751      11.00572265       91       0.53669262      -0.47669581      -0.10019869
92
Lattice="9.01668679 0.0 0.0 -0.5449909865126846 9.195070816874185 0.0 -3.580174842348846 -3.9897958499578836 11.70965691829775" Properties=species:S:1:pos:R:3:spacegroup_kinds:I:1:forces:R:3 spacegroup="P 1" unit_cell=conventional occupancy="_JSON {\"0\": {\"Cu\": 1}, \"1\": {\"Cu\": 1}, \"2\": {\"P\": 1}, \"3\": {\"P\": 1}, \"4\": {\"H\": 1}, \"5\": {\"H\": 1}, \"6\": {\"H\": 1}, \"7\": {\"H\": 1}, \"8\": {\"H\": 1}, \"9\": {\"H\": 1}, \"10\": {\"H\": 1}, \"11\": {\"H\": 1}, \"12\": {\"H\": 1}, \"13\": {\"H\": 1}, \"14\": {\"H\": 1}, \"15\": {\"H\": 1}, \"16\": {\"H\": 1}, \"17\": {\"H\": 1}, \"18\": {\"H\": 1}, \"19\": {\"H\": 1}, \"20\": {\"H\": 1}, \"21\": {\"H\": 1}, \"22\": {\"H\": 1}, \"23\": {\"H\": 1}, \"24\": {\"H\": 1}, \"25\": {\"H\": 1}, \"26\": {\"H\": 1}, \"27\": {\"H\": 1}, \"28\": {\"H\": 1}, \"29\": {\"H\": 1}, \"30\": {\"H\": 1}, \"31\": {\"H\": 1}, \"32\": {\"H\": 1}, \"33\": {\"H\": 1}, \"34\": {\"H\": 1}, \"35\": {\"H\": 1}, \"36\": {\"H\": 1}, \"37\": {\"H\": 1}, \"38\": {\"H\": 1}, \"39\": {\"H\": 1}, \"40\": {\"H\": 1}, \"41\": {\"H\": 1}, \"42\": {\"C\": 1}, \"43\": {\"C\": 1}, \"44\": {\"C\": 1}, \"45\": {\"C\": 1}, \"46\": {\"C\": 1}, \"47\": {\"C\": 1}, \"48\": {\"C\": 1}, \"49\": {\"C\": 1}, \"50\": {\"C\": 1}, \"51\": {\"C\": 1}, \"52\": {\"C\": 1}, \"53\": {\"C\": 1}, \"54\": {\"C\": 1}, \"55\": {\"C\": 1}, \"56\": {\"C\": 1}, \"57\": {\"C\": 1}, \"58\": {\"C\": 1}, \"59\": {\"C\": 1}, \"60\": {\"C\": 1}, \"61\": {\"C\": 1}, \"62\": {\"C\": 1}, \"63\": {\"C\": 1}, \"64\": {\"C\": 1}, \"65\": {\"C\": 1}, \"66\": {\"C\": 1}, \"67\": {\"C\": 1}, \"68\": {\"C\": 1}, \"69\": {\"C\": 1}, \"70\": {\"C\": 1}, \"71\": {\"C\": 1}, \"72\": {\"C\": 1}, \"73\": {\"C\": 1}, \"74\": {\"C\": 1}, \"75\": {\"C\": 1}, \"76\": {\"C\": 1}, \"77\": {\"C\": 1}, \"78\": {\"C\": 1}, \"79\": {\"C\": 1}, \"80\": {\"C\": 1}, \"81\": {\"C\": 1}, \"82\": {\"C\": 1}, \"83\": {\"C\": 1}, \"84\": {\"C\": 1}, \"85\": {\"C\": 1}, \"86\": {\"C\": 1}, \"87\": {\"C\": 1}, \"88\": {\"Br\": 1}, \"89\": {\"Br\": 1}, \"90\": {\"N\": 1}, \"91\": {\"N\": 1}}" energy=-595.996826171875 free_energy=-595.996826171875 stress="-0.0035442982334643602 0.0022265694569796324 -0.007464536000043154 0.0022265694569796324 -0.005434067454189062 0.002763344207778573 -0.007464536000043154 0.002763344207778573 0.004220352042466402" pbc="T T T"
Cu       8.17478199      -0.31062469       1.09153655        0       0.31250507      -0.00199826      -0.25149140
Cu      -3.27424983       5.53044848      10.59390981        1      -0.43363044      -0.27752304       0.00006075
P        7.88561041       0.86297960       2.90915726        2      -0.97710586       0.86334419       1.13473940
P       -2.92039655       4.26954728       8.76125348        3      -0.57330239       0.07932757      -0.69610041
H        7.61913139       5.94050573       1.65594508        4      -0.10888881       0.26456216      -0.13704003
H       -2.76129482      -0.79563626      10.11509313        5       0.09527954       0.29238266      -0.12012700
H        6.23431510       4.03583613       1.18318691        6       0.01942676      -0.58225644       0.23068549
H       -1.36182738       1.20154697      10.48776819        7       0.20945948      -0.89745390       0.23107180
H       -0.16020609       2.77335107      10.95538129        8       0.48025337      -0.62994182       0.25920370
H        5.00662465       2.44084474       0.71806288        9       0.42977035       0.00618905       0.09245026
H        1.41877066       4.50352721      11.46328645       10      -0.73491108       3.42862058      -1.05349779
H        3.46700934       0.63659529       0.21298768       11       0.09142794      -0.52951699       0.22496656
H        1.09843577      -0.71951247       3.78163171       12      -0.12853053      -0.08416289      -0.00183342
H        3.78512472       5.92740476       7.91907672       13      -0.13756761      -0.21581979       0.77055192
H        1.76839188      -1.82160366       5.89145004       14      -0.51177049       0.27530792      -0.11136242
H        3.11195194       7.02051626       5.82828684       15       0.88461471      -0.49408406       0.38126138
H        0.21110558      -1.70462462       7.80154612       16       0.42016166      -0.63174158       1.31280208
H        4.68652639       6.93639269       3.87258721       17      -0.29694486       0.58047622      -1.14811862
H       -2.01074285      -0.60402936       7.59148620       18      -0.91930401      -0.22427116       1.43996692
H        6.93355212       5.79897751       4.07985569       19      -0.96597314       0.04983976       0.76966727
H        6.41785129       0.49059842       5.53648517       20      -1.39163327       0.68752110       0.03239217
H       -1.50640945       4.62701468       6.17144129       21       0.69096267      -0.28766188      -0.07656027
H        6.38250185       3.38994840       3.79580928       22       0.48880813       0.34176624       0.32976228
H       -1.49551075       1.78152730       7.83893022       23       0.30534786       0.96341711       0.17932266
H        3.99334721       3.86048445       4.16514660       24      -0.22814880       0.06122514      -0.11051276
H        0.92326374       1.37927381       7.57680982       25       0.32615364      -1.26400399      -0.36746073
H        2.35492149       2.07377614       3.67707479       26      -1.42783523       0.08545984       0.12295800
H        2.56854487       3.10910487       8.02938148       27      -0.87723601       0.50900131      -0.04690497
H        3.08195122      -0.14132925       2.84891491       28       0.10722475       0.43479407      -0.02527637
H        1.84567384       5.34082539       8.85440479       29      -0.31247988      -0.31251946       0.09672730
H        5.41045634      -0.59425379       2.49588634       30       0.27579939      -0.34234756      -0.01971994
H       -0.59729644       5.76810073       9.21616586       31      -0.27154034       1.18130660       0.43355900
H       -0.08740832       2.79828971       1.04310728       32       0.08451801      -0.10710600      -0.21813256
H        4.98288722       2.40526056      10.68980487       33      -0.16654328      -0.10846504      -0.11325972
H        1.09405828       4.98506227       1.26488073       34      -0.04665326       0.07298613      -0.17856985
H        3.82530158       0.22138632      10.47817731       35       0.26785034       0.27487689      -0.97333300
H        1.59040960       5.87779150       3.54039073       36      -0.19254074      -0.30569917      -0.16324286
H        3.27059995      -0.69706553       8.20228639       37       0.37428945       0.70168400      -0.04946103
H        0.97203640       4.60398765       5.55239749       38       0.01300882      -0.26896572      -1.07613635
H        3.93726615       0.63000282       6.11471370       39       0.13046710       0.21672371       1.07560003
H       -0.22395446       2.43975142       5.34888856       40      -0.16967416      -0.18041782       0.73597473
H        5.12094745       2.79599216       6.36750915       41       0.03514991      -0.25872916      -0.05038209
C        6.67930927       6.10184099       1.11495548       42      -0.34710681      -1.50192380       0.38463962
C       -1.78036681      -0.88131569      10.58622680       43      -1.73290992      -1.35580206      -0.28228238
C        5.85427790       4.98938707       0.88047454       44       1.02588773       1.05420732      -0.05787043
C       -1.00596881       0.19443385      10.82710424       45       1.10741401       2.62798929       0.09716254
C        4.67177602       5.16217024       0.16320759       46      -0.12360186       0.11873944      -0.03975925
C        0.22758786       0.08348395      11.51494887       47      -0.78831995      -3.33028984       0.06247125
C        0.76745592       2.45703482      11.47863222       48       0.21268572       3.28512526      -0.33661839
C        4.11738916       2.69083918       0.16353647       49      -0.55859780       1.07404447      -0.16869836
C        5.22023087       7.55958938       0.03883864       50      -0.06794430      -5.81380701       1.27563322
C       -0.34290675      -2.35142108      11.62248921       51      -0.01995442       1.50904286      -0.36766768
C       -0.77406087       0.06187505       4.50156873       52      -0.67172176      -1.63790679       1.78446198
C        5.65790963       5.16927481       7.21163325       53       3.29489136      -1.02229607      -0.82464606
C        0.40530584      -0.70375795       4.62893360       54       0.30621630       1.14550304      -1.29448736
C        4.49467183       5.83442814       7.12138199       55      -2.25407910       1.64879477      -1.23883855
C        0.79886505      -1.29316527       5.80320728       56      -0.00796065      -0.54012167       1.06619382
C        4.09419137       6.48712114       5.93894011       57       0.66870010       0.23421791      -2.20617414
C       -0.06864020      -1.24856140       6.89928002       58      -0.23853192       0.18614613      -0.85170603
C        4.96492127       6.46188589       4.76704443       59      -1.09432197      -0.66721028       3.63939667
C       -1.33204293      -0.65772779       6.79829693       60       1.35327935       0.08044526      -0.70560849
C        6.17825439       5.80735476       4.93260614       61       1.87175632      -0.15205452      -2.04405212
C       -1.68374012      -0.00241444       5.65436207       62       2.00584078       0.31457907      -2.79268503
C        6.58700905       5.14281113       6.06771105       63      -2.64356875       0.53200155       2.13679194
C        6.05892876       1.33089480       3.19167144       64       1.79483628       1.04700208      -0.11247721
C       -1.20540850       3.85509721       8.52901093       65      -0.01157796       0.51566559       0.47124088
C        5.66447250       2.61211307       3.65923997       66      -1.01620984      -0.95532167      -0.83727241
C       -0.79847713       2.62723126       8.06374869       67       0.93665242      -2.47408915      -0.31255257
C        4.27786627       2.88353023       3.77965922       68       1.78774190       0.21177873       0.44837898
C        0.60558607       2.31566019       7.93556689       69      -2.71856070       1.63811207      -0.11342649
C        3.37474242       1.87919077       3.51237391       70       0.18018188       0.71255279       0.25637546
C        1.47473920       3.34849099       8.13446133       71       2.62539744      -0.77269512       0.44429851
C        3.80426339       0.66639125       3.06136021       72      -1.08233643      -1.88134992      -0.26743165
C        1.08442038       4.56635065       8.65922631       73       0.26115960       1.24493372      -0.26232302
C        5.13446720       0.36561906       2.89543526       74      -0.30178356      -0.11899587      -0.16072409
C       -0.25530738       4.84655337       8.84069782       75       0.30173048      -1.19228864      -0.38288397
C       -0.29913678       2.44861112       3.18147259       76       1.39971316       1.59291315      -0.11338528
C        5.15615834       2.75453205       8.52284912       77      -0.81421626      -1.33240604       1.39763010
C        0.15431514       3.18811305       2.02461643       78      -0.69268864       0.13355295       1.01140594
C        4.73265843       2.01227532       9.70017695       79       0.78922087       0.02462183      -1.60802031
C        0.77422693       4.44562877       2.14756598       80      -0.35280991      -1.28406978      -0.37171832
C        4.13247208       0.74384016       9.53208593       81      -0.03047721       1.23831975       2.63386393
C        1.05539842       4.91953828       3.41264473       82       1.29253674       2.05734777      -1.13726354
C        3.81175015       0.27547642       8.29681320       83      -0.57843643      -1.35765600      -1.31704688
C        0.75878924       4.21175634       4.51182408       84      -1.33227098      -1.38218963       3.74231100
C        4.17657310       0.99780828       7.15597825       85      -0.10888233      -0.25230435      -1.41132343
C        0.02574714       3.00634946       4.48267121       86       0.19184455      -0.31591582      -2.65170646
C        4.86775330       2.20343052       7.24656470       87       0.01880091       0.67627001       0.72189891
Br       3.98646334      -2.68631589      10.84590123       88       0.03191444      -0.07664831       0.17341191
Br       0.88919647       7.93185151       0.88163569       89      -0.02823279       0.01693311      -0.13768876
N        6.36065939       7.32632920       0.72167541       90       0.34196740       1.48837471      -0.23053823
N       -1.52876637      -2.13659457      11.00171859       91       0.64646798      -0.35799870       0.02611141
92
Lattice="9.01668679 0.0 0.0 -0.5449909865126846 9.195070816874185 0.0 -3.580174842348846 -3.9897958499578836 11.70965691829775" Properties=species:S:1:pos:R:3:spacegroup_kinds:I:1:forces:R:3 spacegroup="P 1" unit_cell=conventional occupancy="_JSON {\"0\": {\"Cu\": 1}, \"1\": {\"Cu\": 1}, \"2\": {\"P\": 1}, \"3\": {\"P\": 1}, \"4\": {\"H\": 1}, \"5\": {\"H\": 1}, \"6\": {\"H\": 1}, \"7\": {\"H\": 1}, \"8\": {\"H\": 1}, \"9\": {\"H\": 1}, \"10\": {\"H\": 1}, \"11\": {\"H\": 1}, \"12\": {\"H\": 1}, \"13\": {\"H\": 1}, \"14\": {\"H\": 1}, \"15\": {\"H\": 1}, \"16\": {\"H\": 1}, \"17\": {\"H\": 1}, \"18\": {\"H\": 1}, \"19\": {\"H\": 1}, \"20\": {\"H\": 1}, \"21\": {\"H\": 1}, \"22\": {\"H\": 1}, \"23\": {\"H\": 1}, \"24\": {\"H\": 1}, \"25\": {\"H\": 1}, \"26\": {\"H\": 1}, \"27\": {\"H\": 1}, \"28\": {\"H\": 1}, \"29\": {\"H\": 1}, \"30\": {\"H\": 1}, \"31\": {\"H\": 1}, \"32\": {\"H\": 1}, \"33\": {\"H\": 1}, \"34\": {\"H\": 1}, \"35\": {\"H\": 1}, \"36\": {\"H\": 1}, \"37\": {\"H\": 1}, \"38\": {\"H\": 1}, \"39\": {\"H\": 1}, \"40\": {\"H\": 1}, \"41\": {\"H\": 1}, \"42\": {\"C\": 1}, \"43\": {\"C\": 1}, \"44\": {\"C\": 1}, \"45\": {\"C\": 1}, \"46\": {\"C\": 1}, \"47\": {\"C\": 1}, \"48\": {\"C\": 1}, \"49\": {\"C\": 1}, \"50\": {\"C\": 1}, \"51\": {\"C\": 1}, \"52\": {\"C\": 1}, \"53\": {\"C\": 1}, \"54\": {\"C\": 1}, \"55\": {\"C\": 1}, \"56\": {\"C\": 1}, \"57\": {\"C\": 1}, \"58\": {\"C\": 1}, \"59\": {\"C\": 1}, \"60\": {\"C\": 1}, \"61\": {\"C\": 1}, \"62\": {\"C\": 1}, \"63\": {\"C\": 1}, \"64\": {\"C\": 1}, \"65\": {\"C\": 1}, \"66\": {\"C\": 1}, \"67\": {\"C\": 1}, \"68\": {\"C\": 1}, \"69\": {\"C\": 1}, \"70\": {\"C\": 1}, \"71\": {\"C\": 1}, \"72\": {\"C\": 1}, \"73\": {\"C\": 1}, \"74\": {\"C\": 1}, \"75\": {\"C\": 1}, \"76\": {\"C\": 1}, \"77\": {\"C\": 1}, \"78\": {\"C\": 1}, \"79\": {\"C\": 1}, \"80\": {\"C\": 1}, \"81\": {\"C\": 1}, \"82\": {\"C\": 1}, \"83\": {\"C\": 1}, \"84\": {\"C\": 1}, \"85\": {\"C\": 1}, \"86\": {\"C\": 1}, \"87\": {\"C\": 1}, \"88\": {\"Br\": 1}, \"89\": {\"Br\": 1}, \"90\": {\"N\": 1}, \"91\": {\"N\": 1}}" energy=-594.4833374023438 free_energy=-594.4833374023438 stress="-0.0033218141179531813 0.002286174101755023 -0.011099448427557945 0.002286174101755023 -0.008972452953457832 0.0030783347319811583 -0.011099448427557945 0.0030783347319811583 0.0020311411935836077" pbc="T T T"
Cu       8.15598725      -0.34018836       1.07735504        0       0.29660767       0.09596085      -0.13046253
Cu      -3.30110006       5.53354777      10.58093397        1      -0.34013033      -0.09658580       0.12119116
P        7.89289038       0.83750588       2.92858990        2      -1.04681408       0.98830998       0.86133033
P       -2.94090082       4.28190919       8.78114367        3       0.14164731       0.16065986      -0.84203982
H        7.62299487       5.92369676       1.66670088        4       0.19475496       0.31263989       0.01790154
H       -2.74683872      -0.82119092      10.09784672        5      -0.19618507       0.32011676      -0.14347327
H        6.25849296       4.05982458       1.16594049        6       0.24119923      -1.17585993       0.50753576
H       -1.36065817       1.20250561      10.49633754        7      -0.11505515      -0.31473953      -0.09329348
H       -0.15029677       2.76255510      10.95547795        8       0.46856710      -0.63365799       0.11920827
H        4.98639469       2.42944480       0.69933320        9       1.70211816      -0.27593309       0.92529726
H        1.43397113       4.48555631      11.48454243       10      -1.23379838       5.82872677      -1.66084480
H        3.46115980       0.65941176       0.23937336       11       0.13654721      -1.53310084       0.38847584
H        1.08606657      -0.71562595       3.78699359       12       0.67163777      -0.17625584      -1.01720643
H        3.76171435       5.91454037       7.91674061       13       0.28882092      -0.22313599       0.39330482
H        1.76873695      -1.84969645       5.87011183       14      -0.78102106       0.56391776       0.02725559
H        3.13016674       7.04494721       5.84479550       15       0.86632073      -0.70363891       0.31770691
H        0.20868918      -1.72798774       7.77407068       16       0.65924001      -1.20847106       2.49597454