63
Lattice="9.14109019 0.0 0.0 -1.3811535000629387 10.557899445124423 0.0 -1.894982602165868 -6.051818148831081 9.511474298681785" Properties=species:S:1:pos:R:3:spacegroup_kinds:I:1:forces:R:3 spacegroup="P 1" unit_cell=conventional occupancy="_JSON {\"0\": {\"Zn\": 1}, \"1\": {\"Zn\": 1}, \"2\": {\"Zn\": 1}, \"3\": {\"H\": 1}, \"4\": {\"H\": 1}, \"5\": {\"H\": 1}, \"6\": {\"H\": 1}, \"7\": {\"H\": 1}, \"8\": {\"H\": 1}, \"9\": {\"H\": 1}, \"10\": {\"H\": 1}, \"11\": {\"H\": 1}, \"12\": {\"H\": 1}, \"13\": {\"H\": 1}, \"14\": {\"H\": 1}, \"15\": {\"H\": 1}, \"16\": {\"H\": 1}, \"17\": {\"H\": 1}, \"18\": {\"H\": 1}, \"19\": {\"H\": 1}, \"20\": {\"H\": 1}, \"21\": {\"C\": 1}, \"22\": {\"C\": 1}, \"23\": {\"C\": 1}, \"24\": {\"C\": 1}, \"25\": {\"C\": 1}, \"26\": {\"C\": 1}, \"27\": {\"C\": 1}, \"28\": {\"C\": 1}, \"29\": {\"C\": 1}, \"30\": {\"C\": 1}, \"31\": {\"C\": 1}, \"32\": {\"C\": 1}, \"33\": {\"C\": 1}, \"34\": {\"C\": 1}, \"35\": {\"C\": 1}, \"36\": {\"C\": 1}, \"37\": {\"C\": 1}, \"38\": {\"C\": 1}, \"39\": {\"C\": 1}, \"40\": {\"C\": 1}, \"41\": {\"C\": 1}, \"42\": {\"C\": 1}, \"43\": {\"C\": 1}, \"44\": {\"C\": 1}, \"45\": {\"C\": 1}, \"46\": {\"C\": 1}, \"47\": {\"N\": 1}, \"48\": {\"N\": 1}, \"49\": {\"N\": 1}, \"50\": {\"N\": 1}, \"51\": {\"N\": 1}, \"52\": {\"N\": 1}, \"53\": {\"O\": 1}, \"54\": {\"O\": 1}, \"55\": {\"O\": 1}, \"56\": {\"O\": 1}, \"57\": {\"O\": 1}, \"58\": {\"O\": 1}, \"59\": {\"O\": 1}, \"60\": {\"O\": 1}, \"61\": {\"O\": 1}, \"62\": {\"O\": 1}}" energy=-426.7034912109375 free_energy=-426.7034912109375 stress="-0.006426749750971794 0.000647359061986208 -0.006964048370718956 0.000647359061986208 -0.0041220239363610744 0.0012019856367260218 -0.006964048370718956 0.0012019856367260218 -0.0004528468707576394" pbc="T T T"
Zn       1.61748339       1.73794954       3.56066389        0       0.88311732      -0.65518588       0.05958237
Zn       4.23922084       2.85303108       5.96573973        1      -0.32554266      -0.64539492       0.17916098
Zn      -1.63733232       2.25248714       4.75439165        2      -0.01233027       0.14846279      -0.23747794
H        6.79188900       4.96529301       1.81582158        3      -0.75910801      -0.04649321       0.93716419
H       -0.89154405      -0.43927790       7.69787826        4      -0.48529053      -0.03536236       0.20446497
H        0.04831596       7.90139860       4.17576658        5       0.78684199      -0.08108380      -0.28495109
H        5.82883610      -3.40316568       5.36179066        6      -0.83971602      -0.16600209       0.33252490
H        6.61273259      -1.06771403       4.69894188        7       0.16623437      -0.66584671      -0.05998129
H       -0.73632937       5.58422756       4.76676503        8      -0.70770335       0.71122694       0.09050940
H        1.44961232       4.00732278       0.07779519        9       0.12392971       0.10209005      -0.24053724
H        4.41536482       0.47104792       9.44819595       10       0.72772807      -0.57068187       0.10989090
H       -0.65894222       2.99189811       7.87488813       11       0.90182412      -0.09645516      -0.57742429
H        6.50739302       1.52275966       1.63103408       12      -0.99955845       0.20286396       1.20816994
H        2.07158967       3.22495576       8.40069738       13      -0.57419455      -0.11328173      -0.65140468
H        3.80209816       1.26506424       1.11450338       14       0.50324512       0.04417961       0.48761123
H        5.41450690       8.88519381       1.48736622       15      -0.33613399      -0.14682753       0.07621410
H        0.44237327      -4.41976207       8.01703322       16      -0.04586512       0.91493922      -1.03366125
H        7.35692371      -4.10908879       8.03585080       17      -0.13478893       3.35792685      -2.55214834
H       -1.46829212       8.60947906       1.54363630       18       0.40471396      -0.14389679      -0.11990485
H        5.12078988      -5.04723449       8.70063990       19      -0.76837158       0.31227332      -0.13891567
H        0.73587379       9.54898665       0.82544364       20      -0.35203105       0.10260190      -0.11008314
C        7.50804991       5.12735901       1.05821922       21       2.04154110      -1.05723190      -0.44777808
C       -1.65717007      -0.59365295       8.48049245       22       0.47552502       0.06299775      -0.70342338
C       -0.97950694       7.71605673       4.39446576       23      -0.67365086       0.12163639       0.61829501
C        6.85131293      -3.22062574       5.12747228       24       0.60298294      -0.14470625      -0.53289777
C       -0.01999271      -0.36828997       4.02827127       25       0.33888280      -0.86963350      -0.46131611
C        5.85858942       4.87827363       5.54874096       26       0.85879779       0.71604949      -0.78261417
C        7.25202718      -1.97519221       4.69457930       27       2.20035791       1.19051969       0.03767582
C       -1.44409602       6.45879210       4.79345415       28       1.28823817      -1.11572099      -0.24644870
C        0.52574623       4.57767725      -0.00340946       29      -1.04449308      -0.12822787       1.59633923
C        5.37641660      -0.11226445       9.50418950       30      -1.92855787       2.06651473      -1.44707167
C        0.24844399       2.89097115       7.24084252       31      -5.45142269      -0.63338864      -1.70633900
C        5.62802914       1.62125150       2.33638392       32       4.84045219       0.24460723      -2.50247455
C       -0.45973284      -1.74918150       4.39323635       33      -2.71466208      -0.22113261       0.24819924
C        6.37924566       6.24583487       5.16209974       34      -0.96998507       0.31795838       0.20484893
C       -0.08046186       3.50957524       2.19767230       35      -6.00994825       2.12860823       2.80162573
C        5.99070920       0.97997248       7.28356072       36       0.47482169       1.12628484      -0.66300559
C       -0.40639378       4.40865175       1.08415819       37       0.03658177       0.89781070      -1.33223820
C        6.25452424       0.10432001       8.42024501       38       1.34258354      -1.72081947       1.21729684
C        1.51347332       3.00253523       7.46158464       39       5.92510653       1.01912606       2.98871851
C        4.35384236       1.49346519       2.04602754       40      -3.67664218      -1.03570151      -2.62216663
C        7.25527476      -4.89904538       8.63270918       41       0.91594529      -4.95373106       4.43241453
C       -1.39102507       9.45604412       0.85648083       42      -2.98898602      -0.22267963       0.51003832
C        6.02542670      -5.45134032       9.09971226       43       1.57264268      -0.28434741      -0.30101287
C       -0.21052741       9.99040013       0.46687641       44       2.23559380       0.64775175      -0.22947749
C        6.49969906      10.02291210       0.44507745       45       0.98219997       0.87240356      -0.94826400
C       -0.64175619      -5.49304026       9.14750925       46      -1.63466525       0.72060692      -1.26168990
N        1.31976020       2.48683701       5.38391742       47       0.90803778       0.63376945       0.76391983
N        4.53750059       2.01877278       4.12579836       48      -0.07077914       0.33785874      -0.11832812
N        0.12033303       2.57616644       5.89803742       49      -0.83260477      -0.22799420       0.47973490
N        5.73741039       2.01085211       3.58252093       50       2.01799154       0.01963059       2.38210678
N        2.25499689       2.78711948       6.35531059       51      -1.04025888      -0.65475380      -1.22666454
N        3.68029261       1.72228736       3.15595280       52      -3.04287696       0.27189118       1.50135183
O        0.90776295       2.82249195       2.12313084       53       3.94638777      -2.65315056      -0.32530189
O        4.93863745       1.70518474       7.42608815       54      -0.33573586       0.33723179      -0.64491284
O        1.26203971      -0.25723300       3.85917171       55      -0.62814116       1.10479689       0.00007297
O        4.58793388       4.73350652       5.63722848       56       0.04245524       0.24522698       0.24424060
O       -0.96112483       3.50991466       3.22584108       57       2.09199262       0.12875098      -2.29678893
O        6.83100391       1.04273692       6.31582783       58      -0.86890745      -0.42649043       0.87004173
O       -0.89032486       0.53558473       3.81196067       59       0.62741029      -0.14144534       0.17248154
O        6.70253664       3.94731316       5.68367357       60      -0.15841269      -0.05507629       0.41207102
O        5.25374926       9.53236329       0.77664819       61       0.85938907      -0.02250932       0.21389455
O        0.60630486      -5.02546052       8.72881278       62      -0.71218675      -1.17334437       1.42604303
63
Lattice="9.14109019 0.0 0.0 -1.3811535000629387 10.557899445124423 0.0 -1.894982602165868 -6.051818148831081 9.511474298681785" Properties=species:S:1:pos:R:3:spacegroup_kinds:I:1:forces:R:3 spacegroup="P 1" unit_cell=conventional occupancy="_JSON {\"0\": {\"Zn\": 1}, \"1\": {\"Zn\": 1}, \"2\": {\"Zn\": 1}, \"3\": {\"H\": 1}, \"4\": {\"H\": 1}, \"5\": {\"H\": 1}, \"6\": {\"H\": 1}, \"7\": {\"H\": 1}, \"8\": {\"H\": 1}, \"9\": {\"H\": 1}, \"10\": {\"H\": 1}, \"11\": {\"H\": 1}, \"12\": {\"H\": 1}, \"13\": {\"H\": 1}, \"14\": {\"H\": 1}, \"15\": {\"H\": 1}, \"16\": {\"H\": 1}, \"17\": {\"H\": 1}, \"18\": {\"H\": 1}, \"19\": {\"H\": 1}, \"20\": {\"H\": 1}, \"21\": {\"C\": 1}, \"22\": {\"C\": 1}, \"23\": {\"C\": 1}, \"24\": {\"C\": 1}, \"25\": {\"C\": 1}, \"26\": {\"C\": 1}, \"27\": {\"C\": 1}, \"28\": {\"C\": 1}, \"29\": {\"C\": 1}, \"30\": {\"C\": 1}, \"31\": {\"C\": 1}, \"32\": {\"C\": 1}, \"33\": {\"C\": 1}, \"34\": {\"C\": 1}, \"35\": {\"C\": 1}, \"36\": {\"C\": 1}, \"37\": {\"C\": 1}, \"38\": {\"C\": 1}, \"39\": {\"C\": 1}, \"40\": {\"C\": 1}, \"41\": {\"C\": 1}, \"42\": {\"C\": 1}, \"43\": {\"C\": 1}, \"44\": {\"C\": 1}, \"45\": {\"C\": 1}, \"46\": {\"C\": 1}, \"47\": {\"N\": 1}, \"48\": {\"N\": 1}, \"49\": {\"N\": 1}, \"50\": {\"N\": 1}, \"51\": {\"N\": 1}, \"52\": {\"N\": 1}, \"53\": {\"O\": 1}, \"54\": {\"O\": 1}, \"55\": {\"O\": 1}, \"56\": {\"O\": 1}, \"57\": {\"O\": 1}, \"58\": {\"O\": 1}, \"59\": {\"O\": 1}, \"60\": {\"O\": 1}, \"61\": {\"O\": 1}, \"62\": {\"O\": 1}}" energy=-423.577880859375 free_energy=-423.577880859375 stress="-0.010768704116344452 -0.0038554472848773003 -0.0074525554664433 -0.0038554472848773003 -0.004044282250106335 0.004198707640171051 -0.0074525554664433 0.004198707640171051 0.001401047222316265" pbc="T T T"
Zn       1.64296896       1.70264270       3.59595005        0       0.63518351      -0.37939358      -0.48343888
Zn       4.26052711       2.87236653       5.97124611        1      -0.51724529      -1.04911852       0.47942919
Zn      -1.60549410       2.24525961       4.78743038        2      -0.36483625       0.30932832      -0.28452522
H        6.78835750       4.93680987       1.79349238        3      -1.60713732      -0.25559184       1.92931604
H       -0.85147291      -0.42445045       7.66678784        4      -1.29541683       0.03477780       1.33074009
H        0.04820577       7.86214033       4.19418980        5       0.56988865       0.03855262      -0.49927226
H        5.86897703      -3.37057095       5.34233085        6      -4.63756275      -0.88397533       1.16933370
H        6.60351962      -1.04660111       4.66462982        7       1.11293554      -1.86471868       0.23728009
H       -0.71056491       5.57422356       4.75728254        8      -0.47886711       0.31765452       0.32641995
H        1.44110514       3.96677346       0.11851810        9       0.60578835      -0.08413944      -0.22171202
H        4.46501080       0.51447775       9.43225612       10       0.13453600      -0.54377168       0.09866484
H       -0.68006336       2.97564672       7.92240327       11       2.23701048       0.06082879      -1.66823339
H        6.47488895       1.50206635       1.64768537       12      -0.39104760       0.19789307       0.95316774
H        2.12086940       3.19354740       8.44549722       13      -2.13845158      -0.51676321      -2.35461664
H        3.82842485       1.22606607       1.09261531       14      -0.06661741      -0.01717566      -0.07995205
H        5.41083156       8.88913321       1.45808488       15      -0.03806588      -1.82842731       1.84305966
H        0.44551076      -4.38510102       8.05316068       16       0.08198512       1.31155050      -1.44310749
H        7.39306562      -4.14089271       8.02742421       17      -0.12184000       5.63753653      -4.30004215
H       -1.44504880       8.64825732       1.56064726       18       0.21217337      -2.37449026       1.70520139
H        5.15552431      -4.99948462       8.74039321       19       0.20640156      -0.50460821       0.42782596
H        0.70336649       9.51073793       0.86262844       20      -0.00390439       0.27139702      -0.42203435
C        7.50370519       5.09418255       1.07815335       21       2.48421931       0.82503164      -3.42316818
C       -1.61613039      -0.54514464       8.52418915       22       0.55079907      -1.28042686      -1.28419292
C       -0.99461439       7.67558499       4.35226017       23      -0.96932131       0.65686882       1.15179968
C        6.81462937      -3.20163613       5.14036669       24       6.22522879      -2.18407249      -0.78903860
C       -0.04209217      -0.36919239       3.98346277       25       2.04518223      -2.80619431       0.23225546
C        5.81891303       4.88515006       5.58555374       26       1.38139868       0.68023741      -1.19299853
C        7.28838944      -2.00837939       4.73732488       27      -0.76545060       3.83013678      -0.83024561
C       -1.42068815       6.42415554       4.83477239       28       1.05996680      -0.43017486      -0.91198957
C        0.54831194       4.55381388       0.01605172       29      -1.58937728       1.56849885       0.26885349
C        5.37832403      -0.11344983       9.47185025       30      -2.85794973       0.18173525       2.36148691
C        0.26591161       2.92996925       7.20631437       31     -12.59686279      -0.88416255       0.34445989
C        5.60933279       1.61711643       2.33189460       32       4.07787180       0.02970700      -1.09281468
C       -0.50960390      -1.78700780       4.36111072       33       0.45232469      -0.03635570      -0.15562895
C        6.41260200       6.21477299       5.19108479       34      -3.76175380       1.91027951       0.44654742
C       -0.11953397       3.53204011       2.16141078       35      -1.42305863      -2.09250307       5.27617073
C        5.95465385       0.97167762       7.32930334       36       1.17741454       2.09170270      -1.82854629
C       -0.40931590       4.40557744       1.07322297       37      -0.45954740       0.73276496      -1.12868655
C        6.21270446       0.06296193       8.43619728       38       3.99028373      -0.98711681      -0.60965079
C        1.46611833       2.96799943       7.42564065       39      13.27747917       2.33570910       7.85561657
C        4.35015082       1.48228858       2.00327530       40      -4.22634697      -0.04089639       1.42227912
C        7.24916882      -4.88176066       8.60740189       41       1.18585896      -7.74186516       6.78034973
C       -1.42703915       9.42582610       0.90081959       42      -0.22225316       3.44765282      -2.81302691
C        6.07469523      -5.48319028       9.14362730       43      -1.03462708       1.87044787      -1.95908356
C       -0.19495843       9.96260609       0.41840395       44      -0.89922452       0.57315993       0.73944139
C        6.46964521      10.02108269       0.48114281       45       2.87934351       0.15611646      -0.63328296
C       -0.65710372      -5.46250797       9.11683709       46      -0.80568683      -1.06513417      -0.05627462
N        1.36302619       2.48713527       5.35026283       47      -1.40976262       1.31120944       3.38828778
N        4.55270565       2.06100679       4.13066644       48      -2.63870144      -0.39347097       0.37141818
N        0.08605841       2.59619222       5.93844376       49       1.51146173      -0.77954412      -3.37640095
N        5.70159595       1.96452453       3.62635768       50       4.57660007       0.27508587       0.07768732
N        2.26449501       2.79481874       6.40013364       51      -0.97534686      -1.45913172      -3.75255156
N        3.64928345       1.74669602       3.20242642       52      -1.21221554      -0.08089872      -1.42907405
O        0.92157768       2.78064967       2.13793839       53      -0.26636249       0.44074288      -0.63603926
O        4.93549534       1.74900314       7.45944882       54      -0.25420243      -0.24104935      -0.35742238
O        1.24933275      -0.25920781       3.82252807       55      -0.73298025       0.35644105       0.07033776
O        4.54172660       4.71729232       5.63969600       56       0.59821218       0.98455513       0.21689066
O       -0.95161224       3.52701045       3.26675246       57       2.11289215       0.41155592      -3.54662156
O        6.82638464       1.08730618       6.36515945       58      -1.39974177      -0.92435026       1.50992346
O       -0.84276390       0.54774115       3.82237377       59      -1.54146171       1.45088017      -0.12295486
O        6.68653805       3.97823542       5.70298469       60      -0.27393067      -0.79712236       0.57717144
O        5.25714065       9.51432128       0.78683145       61      -0.56441820       1.56616569      -1.31081414
O        0.60436480      -4.98727563       8.75771901       62      -0.84086806      -1.33955824       1.40602660
63
Lattice="9.14109019 0.0 0.0 -1.3811535000629387 10.557899445124423 0.0 -1.894982602165868 -6.051818148831081 9.511474298681785" Properties=species:S:1:pos:R:3:spacegroup_kinds:I:1:forces:R:3 spacegroup="P 1" unit_cell=conventional occupancy="_JSON {\"0\": {\"Zn\": 1}, \"1\": {\"Zn\": 1}, \"2\": {\"Zn\": 1}, \"3\": {\"H\": 1}, \"4\": {\"H\": 1}, \"5\": {\"H\": 1}, \"6\": {\"H\": 1}, \"7\": {\"H\": 1}, \"8\": {\"H\": 1}, \"9\": {\"H\": 1}, \"10\": {\"H\": 1}, \"11\": {\"H\": 1}, \"12\": {\"H\": 1}, \"13\": {\"H\": 1}, \"14\": {\"H\": 1}, \"15\": {\"H\": 1}, \"16\": {\"H\": 1}, \"17\": {\"H\": 1}, \"18\": {\"H\": 1}, \"19\": {\"H\": 1}, \"20\": {\"H\": 1}, \"21\": {\"C\": 1}, \"22\": {\"C\": 1}, \"23\": {\"C\": 1}, \"24\": {\"C\": 1}, \"25\": {\"C\": 1}, \"26\": {\"C\": 1}, \"27\": {\"C\": 1}, \"28\": {\"C\": 1}, \"29\": {\"C\": 1}, \"30\": {\"C\": 1}, \"31\": {\"C\": 1}, \"32\": {\"C\": 1}, \"33\": {\"C\": 1}, \"34\": {\"C\": 1}, \"35\": {\"C\": 1}, \"36\": {\"C\": 1}, \"37\": {\"C\": 1}, \"38\": {\"C\": 1}, \"39\": {\"C\": 1}, \"40\": {\"C\": 1}, \"41\": {\"C\": 1}, \"42\": {\"C\": 1}, \"43\": {\"C\": 1}, \"44\": {\"C\": 1}, \"45\": {\"C\": 1}, \"46\": {\"C\": 1}, \"47\": {\"N\": 1}, \"48\": {\"N\": 1}, \"49\": {\"N\": 1}, \"50\": {\"N\": 1}, \"51\": {\"N\": 1}, \"52\": {\"N\": 1}, \"53\": {\"O\": 1}, \"54\": {\"O\": 1}, \"55\": {\"O\": 1}, \"56\": {\"O\": 1}, \"57\": {\"O\": 1}, \"58\": {\"O\": 1}, \"59\": {\"O\": 1}, \"60\": {\"O\": 1}, \"61\": {\"O\": 1}, \"62\": {\"O\": 1}}" energy=-420.96533203125 free_energy=-420.96533203125 stress="-0.014344479888677597 -4.929614078719169e-05 -0.0024361771065741777 -4.929614078719169e-05 -0.013361499644815922 0.0059939660131931305 -0.0024361771065741777 0.0059939660131931305 -0.002288471208885312" pbc="T T T"
Zn       1.61515608       1.71871976       3.60116840        0       0.74054950      -0.49218124      -1.18076563
Zn       4.29750029       2.88729446       5.94094314        1      -0.98825753      -2.08152342       0.60614181
Zn      -1.56282719       2.22149849       4.75682292        2      -0.68026769       0.61166120       0.04732918
H        6.83300955       4.91711331       1.82850681        3      -1.24794066      -0.03543153       1.27799320
H       -0.87104178      -0.44129592       7.64633100        4      -1.28829825      -0.13959780       1.37119615
H        0.09352186       7.81922061       4.22093817        5      -1.49238813       0.20821944      -0.39579540
H        5.90610830      -3.34905404       5.34208667        6      -4.72724199      -0.84657031       1.21357024
H        6.56398071      -1.03809048       4.70910764        7       1.98519754      -2.82100964       0.14618596
H       -0.69377204       5.57481413       4.79182807        8      -0.90402216       0.94750339       0.41861874
H        1.42850793       3.94665756       0.09562595        9       0.21631777       0.14479689      -0.07879463
H        4.44696579       0.50055080       9.40200373       10       0.84599710      -0.80881947       0.10173675
H       -0.65771375       2.94773296       7.91933613       11       0.73472291       0.12191132      -0.64243722
H        6.49693243       1.52962769       1.67332085       12      -0.02975073       0.01588122       0.74112934
H        2.14462917       3.15208009       8.48745012       13      -2.41124773      -0.25732994      -2.72112942
H        3.83186588       1.25710655       1.08685139       14       0.08352227      -0.17677957       0.40912724
H        5.45892825       8.84991750       1.43638428       15      -0.15132760      -1.00172007       0.93431818
H        0.44209693      -4.40923354       8.09640319       16       0.12412646       1.56491649      -1.73296642
H        7.39408708      -4.17486446       8.05620069       17       0.63438630       9.34663486      -7.92342329
H       -1.49104432       8.61693817       1.59483005       18       0.66819334       0.47942674      -0.69557345
H        5.17708578      -5.04267624       8.77076291       19      -1.13615680       0.61782610      -0.55800390
H        0.67632513       9.54956607       0.91005345       20       1.55109799      -0.25284383       0.12915437
C        7.53897062       5.06636803       1.07956619       21       1.26459169       1.84288430      -3.71258879
C       -1.63863206      -0.56988244       8.49816108       22       0.88809359      -2.11465573       0.61291748
C       -1.03687478       7.72213703       4.34575729       23       4.78655529      -4.30703449       1.45418096
C        6.86252132      -3.22898900       5.16118243       24       4.46503210      -1.54992437      -0.73239982
C       -0.07460847      -0.39216980       4.00901545       25       7.15570927      -4.41704273      -0.39512253
C        5.79608107       4.91754063       5.62087558       26       4.16093636      -1.32761800      -1.01874030
C        7.32045323      -2.05607682       4.75322658       27      -1.28781772       5.92488861      -1.23039842
C       -1.42411365       6.43934044       4.88190053       28       1.33900154      -0.40076840      -1.60299754
C        0.52020654       4.54113674       0.06294169       29       0.47031683       1.89005136      -2.53998995
C        5.40770025      -0.10371720       9.42496841       30      -6.37732506      -1.22164226       7.43624735
C        0.22392943       2.90967445       7.24869474       31      -8.61493301      -1.05743623      -1.95241523
C        5.65743410       1.57886543       2.37440675       32       0.47400668       0.36230171      -1.45247710
C       -0.47592723      -1.82228876       4.33312176       33      -3.18410349       3.74186277       0.35907316
C        6.40337110       6.22612990       5.19724844       34      -2.70863700       0.57826900       0.90654552
C       -0.13900883       3.57190478       2.15786499       35       1.15790343      -5.93786144       7.95954800
C        5.99771081       1.00472473       7.28809632       36      -0.66401583       1.30264974      -0.02321282
C       -0.37823501       4.38008885       1.11354850       37      -2.62542439       3.29003835      -3.01593018
C        6.20807144       0.05206550       8.45967025       38       6.75873947       0.82725376      -5.92438316
C        1.45304539       2.98625790       7.44113919       39      11.19743347       1.81583619       7.05848455
C        4.33868199       1.43309314       2.04139425       40      -1.13274574       0.14925423       0.88904667
C        7.29749994      -4.83557392       8.64544167       41      -1.20388341     -11.54721260       9.64048672
C       -1.38668757       9.46918664       0.87056376       42      -1.66832948      -0.08099832       0.21020180
C        6.09660794      -5.44780536       9.10074449       43      -0.03680283      -0.07095203       0.10034743
C       -0.15036816       9.98931963       0.43326769       44      -3.12212873       0.18706377       0.59388959
C        6.48318185      10.03583966       0.46078709       45       3.77148485       0.98113990      -1.29665852
C       -0.68828051      -5.48103094       9.13668400       46       1.63554597       0.29097643      -0.34796262
N        1.31790061       2.44088748       5.32345292       47      -1.14600563       2.70132446       5.69169903
N        4.54236465       2.04063634       4.08450717       48      -2.52765894       1.12869775       4.74495411
N        0.07137281       2.60044071       5.93621147       49       1.18045092      -1.16356730      -2.19610596
N        5.70794227       2.00599519       3.66259197       50       5.18537140      -0.66471475      -1.67898750
N        2.24629226       2.81242065       6.41682773       51      -0.63456440      -1.77797103      -4.34528351
N        3.65035315       1.72016407       3.23773942       52      -1.88643324      -0.77179217      -3.49748421
O        0.94636256       2.79644294       2.09314190       53      -1.71511126       1.27884138       0.04352222
O        4.94223469       1.76613646       7.42655802       54       0.68453997      -0.68278897      -0.40516156
O        1.29141673      -0.21621225       3.81526211       55      -2.77612495      -0.69720924       0.59996021
O        4.55316166       4.68016755       5.67884631       56      -0.21106982       2.18904901       0.00102425
O       -0.95222673       3.49523267       3.29665939       57       2.35932732       1.00820887      -4.36768341
O        6.82929634       1.09155365       6.32878132       58      -0.68233633      -0.89616764       1.15883470
O       -0.81757726       0.50273370       3.83100630       59      -4.47694206       4.09227419      -0.40360880
O        6.72823615       4.00979970       5.75145857       60      -1.76105750       0.51942092       0.33918911
O        5.28516440       9.50815011       0.77296858       61      -0.41922396       0.80890918      -0.54048407
O        0.58821539      -5.00926908       8.79699195       62      -0.59957606      -1.36880505       1.41231060
63
Lattice="9.14109019 0.0 0.0 -1.3811535000629387 10.557899445124423 0.0 -1.894982602165868 -6.051818148831081 9.511474298681785" Properties=species:S:1:pos:R:3:spacegroup_kinds:I:1:forces:R:3 spacegroup="P 1" unit_cell=conventional occupancy="_JSON {\"0\": {\"Zn\": 1}, \"1\": {\"Zn\": 1}, \"2\": {\"Zn\": 1}, \"3\": {\"H\": 1}, \"4\": {\"H\": 1}, \"5\": {\"H\": 1}, \"6\": {\"H\": 1}, \"7\": {\"H\": 1}, \"8\": {\"H\": 1}, \"9\": {\"H\": 1}, \"10\": {\"H\": 1}, \"11\": {\"H\": 1}, \"12\": {\"H\": 1}, \"13\": {\"H\": 1}, \"14\": {\"H\": 1}, \"15\": {\"H\": 1}, \"16\": {\"H\": 1}, \"17\": {\"H\": 1}, \"18\": {\"H\": 1}, \"19\": {\"H\": 1}, \"20\": {\"H\": 1}, \"21\": {\"C\": 1}, \"22\": {\"C\": 1}, \"23\": {\"C\": 1}, \"24\": {\"C\": 1}, \"25\": {\"C\": 1}, \"26\": {\"C\": 1}, \"27\": {\"C\": 1}, \"28\": {\"C\": 1}, \"29\": {\"C\": 1}, \"30\": {\"C\": 1}, \"31\": {\"C\": 1}, \"32\": {\"C\": 1}, \"33\": {\"C\": 1}, \"34\": {\"C\": 1}, \"35\": {\"C\": 1}, \"36\": {\"C\": 1}, \"37\": {\"C\": 1}, \"38\": {\"C\": 1}, \"39\": {\"C\": 1}, \"40\": {\"C\": 1}, \"41\": {\"C\": 1}, \"42\": {\"C\": 1}, \"43\": {\"C\": 1}, \"44\": {\"C\": 1}, \"45\": {\"C\": 1}, \"46\": {\"C\": 1}, \"47\": {\"N\": 1}, \"48\": {\"N\": 1}, \"49\": {\"N\": 1}, \"50\": {\"N\": 1}, \"51\": {\"N\": 1}, \"52\": {\"N\": 1}, \"53\": {\"O\": 1}, \"54\": {\"O\": 1}, \"55\": {\"O\": 1}, \"56\": {\"O\": 1}, \"57\": {\"O\": 1}, \"58\": {\"O\": 1}, \"59\": {\"O\": 1}, \"60\": {\"O\": 1}, \"61\": {\"O\": 1}, \"62\": {\"O\": 1}}" energy=-420.22723388671875 free_energy=-420.22723388671875 stress="-0.013445552438497543 0.0015184036456048489 -0.01425851695239544 0.0015184036456048489 -0.013442333787679672 0.0059119900688529015 -0.01425851695239544 0.0059119900688529015 0.000958227610681206" pbc="T T T"
Zn       1.62885903       1.67186600       3.58104342        0       0.53549391       0.03064378      -0.54543984
Zn       4.32157509       2.87612373       5.95956661        1      -0.88780349      -1.41363704       0.39606664
Zn      -1.59412015       2.25958346       4.73374111        2      -0.52785933       0.29363358       0.77411294
H        6.79431307       4.94898636       1.86876511        3       0.24910304      -0.06899138      -0.28274533
H       -0.88419613      -0.48023582       7.61350836        4      -1.17256594       0.19975655       1.73527765
H        0.05516728       7.83475881       4.25172180        5       0.66566849       0.35459781      -0.63168788
H        5.91159298      -3.33130855       5.37801142        6      -4.85367823      -0.74313593       1.28226542
H        6.60798503      -1.04939960       4.73103007        7       1.93740845      -2.84425640       0.24293584
H       -0.66793193       5.52839452       4.81723393        8      -1.43057323       1.46747494       0.34870970
H        1.38084052       3.97709416       0.06411006        9       1.36192560      -0.50253695      -0.06283890
H        4.48957365       0.50993237       9.39063390       10      -0.07588281      -0.62542307       0.38562497