82
Lattice="7.44870883 0.0 0.0 0.03931105960225618 8.944151731039343 0.0 -3.7644561297887638 -3.4522226788819785 10.18128287934542" Properties=species:S:1:pos:R:3:spacegroup_kinds:I:1:forces:R:3 spacegroup="P 1" unit_cell=conventional occupancy="_JSON {\"0\": {\"Fe\": 1}, \"1\": {\"Fe\": 1}, \"2\": {\"Fe\": 1}, \"3\": {\"Fe\": 1}, \"4\": {\"H\": 1}, \"5\": {\"H\": 1}, \"6\": {\"H\": 1}, \"7\": {\"H\": 1}, \"8\": {\"H\": 1}, \"9\": {\"H\": 1}, \"10\": {\"H\": 1}, \"11\": {\"H\": 1}, \"12\": {\"H\": 1}, \"13\": {\"H\": 1}, \"14\": {\"H\": 1}, \"15\": {\"H\": 1}, \"16\": {\"H\": 1}, \"17\": {\"H\": 1}, \"18\": {\"H\": 1}, \"19\": {\"H\": 1}, \"20\": {\"H\": 1}, \"21\": {\"H\": 1}, \"22\": {\"H\": 1}, \"23\": {\"H\": 1}, \"24\": {\"H\": 1}, \"25\": {\"H\": 1}, \"26\": {\"H\": 1}, \"27\": {\"H\": 1}, \"28\": {\"H\": 1}, \"29\": {\"H\": 1}, \"30\": {\"H\": 1}, \"31\": {\"H\": 1}, \"32\": {\"H\": 1}, \"33\": {\"H\": 1}, \"34\": {\"H\": 1}, \"35\": {\"H\": 1}, \"36\": {\"H\": 1}, \"37\": {\"H\": 1}, \"38\": {\"H\": 1}, \"39\": {\"H\": 1}, \"40\": {\"C\": 1}, \"41\": {\"C\": 1}, \"42\": {\"C\": 1}, \"43\": {\"C\": 1}, \"44\": {\"C\": 1}, \"45\": {\"C\": 1}, \"46\": {\"C\": 1}, \"47\": {\"C\": 1}, \"48\": {\"C\": 1}, \"49\": {\"C\": 1}, \"50\": {\"C\": 1}, \"51\": {\"C\": 1}, \"52\": {\"C\": 1}, \"53\": {\"C\": 1}, \"54\": {\"C\": 1}, \"55\": {\"C\": 1}, \"56\": {\"C\": 1}, \"57\": {\"C\": 1}, \"58\": {\"C\": 1}, \"59\": {\"C\": 1}, \"60\": {\"C\": 1}, \"61\": {\"C\": 1}, \"62\": {\"C\": 1}, \"63\": {\"C\": 1}, \"64\": {\"O\": 1}, \"65\": {\"O\": 1}, \"66\": {\"O\": 1}, \"67\": {\"O\": 1}, \"68\": {\"O\": 1}, \"69\": {\"O\": 1}, \"70\": {\"O\": 1}, \"71\": {\"O\": 1}, \"72\": {\"O\": 1}, \"73\": {\"O\": 1}, \"74\": {\"O\": 1}, \"75\": {\"O\": 1}, \"76\": {\"O\": 1}, \"77\": {\"O\": 1}, \"78\": {\"O\": 1}, \"79\": {\"O\": 1}, \"80\": {\"O\": 1}, \"81\": {\"O\": 1}}" energy=-511.8291015625 free_energy=-511.8291015625 stress="0.00435062637552619 0.00010253240907331929 -0.0010107101406902075 0.00010253240907331929 0.010497617535293102 0.0027548817452043295 -0.0010107101406902075 0.0027548817452043295 0.01400867197662592" pbc="T T T"
Fe       5.96300173       8.43256157       0.46256636        0      -0.18375881      -0.33067900      -0.26232031
Fe       2.19545316       1.52978863       9.71194260        1      -0.23457405       0.27699953       0.31395528
Fe      -2.26110954      -2.93498186       9.73193475        2       0.30386338       0.26688802       0.19429770
Fe       1.54099805       3.93941696       0.47265136        3       0.19609402      -0.19421716      -0.34460285
H        1.43690758       5.37134591       3.12494913        4       0.02234247       0.02474534       0.05191071
H       -2.30006166       4.59318339       7.05540062        5      -0.04458445      -0.04751725      -0.04564064
H        2.28589104       0.12214642       7.06165588        6       0.05231048      -0.05468634      -0.05698556
H        6.01168945       0.90120163       3.12646238        7       0.08156281       0.05372909       0.04832273
H       -0.12005109       4.63285583       3.33457086        8      -0.08729117      -0.15683958       0.14815670
H        3.58850401       5.33281165       6.84729966        9      -0.02604593       0.00636105      -0.10559675
H        3.84278932       0.86150339       6.84326329       10       0.07825227       0.10404968      -0.11997120
H        0.11751878       0.15399263       3.33895697       11       0.07492011      -0.09561943       0.12735936
H       -0.92260706       6.81979793       4.48640912       12      -0.01654770      -0.02605867      -0.04700720
H        2.78666321       3.14494361       5.69477200       13      -0.04804883       0.05412981       0.02886085
H        4.64733003      -1.32717832       5.69685708       14      -0.03432130       0.02759628       0.03138937
H        0.93013411       2.34110121       4.48649647       15       0.01134728      -0.04201105      -0.04124000
H        0.74941610       7.36938059       4.45046831       16      -0.10702433       0.02217007      -0.13205625
H        4.45073107       2.59131858       5.72682977       17      -0.08946814       0.00193015       0.14337319
H        2.97431762      -1.87440611       5.72905211       18       0.05236216      -0.09121951       0.10176362
H       -0.73454471       2.89845722       4.45414336       19       0.07767088       0.00525732      -0.11986637
H        1.41406534       5.27533946       5.74827131       20       0.09194888      -0.09222241      -0.00250779
H        5.13070369       4.68558610       4.42964609       21       0.05967199       0.05747476      -0.00701019
H        2.30666454       0.21976973       4.42696664       22       0.12214851       0.01954411       0.01695902
H       -1.41437686       0.81129269       5.75634893       23       0.07436284      -0.07260785      -0.00116614
H       -0.28618010       4.83003407       5.83766886       24       0.10144125       0.03916271       0.00749365
H        3.43420750       5.13691287       4.34278624       25       0.05189320       0.01784575      -0.01719172
H        4.00630344       0.66576909       4.34467817       26       0.07359740       0.14432281      -0.01847683
H        0.28495325       0.35585698       5.84129565       27       0.05890056      -0.16326453       0.02587102
H        0.92103681      -1.55506055       7.02141032       28      -0.11971976      -0.02293718       0.00189123
H        4.65478015       2.56785538       3.15702330       29      -0.13112774       0.02646784       0.02265272
H        2.82199363       7.04731183       3.15735443       30      -0.05864635      -0.13315026       0.03658087
H       -0.93164998       2.92493122       7.02211007       31      -0.01552329       0.07841916      -0.04316533
H       -0.82240896      -1.94484423       7.04336321       32      -0.12314758       0.01156749      -0.07092251
H        2.91744421       2.97916814       3.13317464       33      -0.15487880      -0.01428284       0.05605324
H        4.55745031       7.44913273       3.13979158       34       0.04999210       0.01392712       0.05197877
H        0.79939171       2.51776103       7.04495504       35       0.08281975      -0.02344498      -0.04667589
H        0.13626094       3.78860804       9.57029194       36       0.04362225      -0.12414074      -0.16740407
H        3.89104940       6.17165745       0.60081205       37       0.18861671       0.25322834      -0.01018250
H        3.58502259       1.70318309       0.59276095       38      -0.15785059       0.21682301       0.06968784
H       -0.15936354      -0.67622448       9.55878898       39      -0.26226157      -0.26031762       0.03392106
C       -0.11537777       6.17183856       1.93231497       40      -0.04213304       0.16668314      -0.35758513
C        3.59639744       3.78528869       8.24969008       41      -0.19810122      -0.33758330       0.28614652
C        3.84610187      -0.68441500       8.24395925       42       0.20033120      -0.25189447       0.29572338
C        0.12443360       1.69989644       1.94255202       43       0.17059326       0.23943788      -0.44863993
C        0.37076359       5.61042897       3.24992410       44      -0.07980064       0.19355989      -0.19710535
C        4.08053732       4.34973854       6.93459032       45      -0.07612085      -0.04332629       0.06898466
C        3.35402730      -0.11846653       6.93294779       46       0.01971492      -0.19674730       0.06780812
C       -0.36626518       1.13717175       3.25151137       47      -0.05581084       0.10354415      -0.05038998
C        0.11985430       6.46323313       4.48235578       48       0.11555760      -0.08342877       0.01603632
C        3.82820453       3.50311519       5.69870427       49       0.14712474       0.03201218      -0.10445521
C        3.60269295      -0.97174633       5.69561683       50       0.01014281       0.27626395       0.09168096
C       -0.11401848       1.98650437       4.48569629       51      -0.00639241      -0.06781211       0.02329016
C        0.39955929       5.69710027       5.77368293       52      -0.15425539      -0.03208034       0.10369299
C        4.11328662       4.26748909       4.40295325       53      -0.12165751      -0.00857314       0.04815690
C        3.33131703      -0.19809640       4.40590322       54      -0.33172065      -0.19219753      -0.00946281
C       -0.38847030       1.22067344       5.77877873       55      -0.28680038       0.17580621       0.00416790
C        0.41227220       5.75644037       8.28898821       56      -0.08806210      -0.17444441       0.29656675
C        4.13745926       4.20631030       1.88867626       57       0.15475556      -0.06921160      -0.25303802
C        3.30778148      -0.25424293       1.89954703       58      -0.05239631      -0.05277854      -0.32925025
C       -0.41755462       1.28993261       8.28913946       59       0.09934325      -0.22224659       0.37567830
C        0.18836901      -2.37706894       7.02682787       60       0.25703353       0.02817625      -0.19254553
C        3.93221598       3.39917034       3.15187465       61       0.35359555      -0.02451631       0.15760523
C        3.53963524       7.87183638       3.15754821       62       0.07655630       0.20424724       0.09813675
C       -0.21739432       2.09427764       7.02646748       63      -0.00167084      -0.03500101      -0.11656939
O        1.53807361       5.79846945       8.87608688       64       0.15711856       0.10655276      -0.14593561
O        5.26876702       4.15689916       1.31501681       65       0.16669704      -0.06246174       0.17572929
O        2.17895309      -0.30198428       1.32067191       66      -0.15543865      -0.07439900       0.14772622
O       -1.54669307       1.33270545       8.86294239       67      -0.13455772       0.08424317      -0.16228162
O        0.73147702       3.25401849      10.17559500       68       0.25069180      -0.14997894       0.19028406
O       -0.77341860      -1.20962779      10.16363272       69      -0.10871935       0.09469513      -0.01045200
O       -0.57290590       5.01557896       8.67177684       70      -0.06522173       0.20308931      -0.21664914
O        3.15914264       4.93831104       1.48582548       71      -0.26989576       0.01716660       0.15955387
O        4.28709069       0.48225909       1.50398537       72       0.19133185      -0.06840404       0.20961441
O        0.56583262       0.54571838       8.68877092       73      -0.00852507       0.23316568      -0.29021907
O        0.17244823       5.52077035       0.86078590       74       0.18123421      -0.23133041       0.34041321
O        3.88772141       4.43731415       9.31545502       75       0.12394919       0.21238485      -0.18183179
O        3.57081915      -0.03352620       9.31621205       76      -0.24200994       0.23054871      -0.22770183
O       -0.14769147       1.04324088       0.87209112       77      -0.26991409      -0.21950832       0.25686052
O        6.61784260       7.21983234       1.94796499       78       0.12835890       0.00221121       0.18041101
O        2.87319578       2.73765144       8.23566435       79       0.27517420       0.22677013      -0.23019803
O       -2.88185000      -1.73095010       8.22299845       80      -0.24466316       0.06813891      -0.19197394
O        0.83796325       2.74940341       1.95597421       81      -0.14035726      -0.07819581       0.26952699
82
Lattice="7.44870883 0.0 0.0 0.03931105960225618 8.944151731039343 0.0 -3.7644561297887638 -3.4522226788819785 10.18128287934542" Properties=species:S:1:pos:R:3:spacegroup_kinds:I:1:forces:R:3 spacegroup="P 1" unit_cell=conventional occupancy="_JSON {\"0\": {\"Fe\": 1}, \"1\": {\"Fe\": 1}, \"2\": {\"Fe\": 1}, \"3\": {\"Fe\": 1}, \"4\": {\"H\": 1}, \"5\": {\"H\": 1}, \"6\": {\"H\": 1}, \"7\": {\"H\": 1}, \"8\": {\"H\": 1}, \"9\": {\"H\": 1}, \"10\": {\"H\": 1}, \"11\": {\"H\": 1}, \"12\": {\"H\": 1}, \"13\": {\"H\": 1}, \"14\": {\"H\": 1}, \"15\": {\"H\": 1}, \"16\": {\"H\": 1}, \"17\": {\"H\": 1}, \"18\": {\"H\": 1}, \"19\": {\"H\": 1}, \"20\": {\"H\": 1}, \"21\": {\"H\": 1}, \"22\": {\"H\": 1}, \"23\": {\"H\": 1}, \"24\": {\"H\": 1}, \"25\": {\"H\": 1}, \"26\": {\"H\": 1}, \"27\": {\"H\": 1}, \"28\": {\"H\": 1}, \"29\": {\"H\": 1}, \"30\": {\"H\": 1}, \"31\": {\"H\": 1}, \"32\": {\"H\": 1}, \"33\": {\"H\": 1}, \"34\": {\"H\": 1}, \"35\": {\"H\": 1}, \"36\": {\"H\": 1}, \"37\": {\"H\": 1}, \"38\": {\"H\": 1}, \"39\": {\"H\": 1}, \"40\": {\"C\": 1}, \"41\": {\"C\": 1}, \"42\": {\"C\": 1}, \"43\": {\"C\": 1}, \"44\": {\"C\": 1}, \"45\": {\"C\": 1}, \"46\": {\"C\": 1}, \"47\": {\"C\": 1}, \"48\": {\"C\": 1}, \"49\": {\"C\": 1}, \"50\": {\"C\": 1}, \"51\": {\"C\": 1}, \"52\": {\"C\": 1}, \"53\": {\"C\": 1}, \"54\": {\"C\": 1}, \"55\": {\"C\": 1}, \"56\": {\"C\": 1}, \"57\": {\"C\": 1}, \"58\": {\"C\": 1}, \"59\": {\"C\": 1}, \"60\": {\"C\": 1}, \"61\": {\"C\": 1}, \"62\": {\"C\": 1}, \"63\": {\"C\": 1}, \"64\": {\"O\": 1}, \"65\": {\"O\": 1}, \"66\": {\"O\": 1}, \"67\": {\"O\": 1}, \"68\": {\"O\": 1}, \"69\": {\"O\": 1}, \"70\": {\"O\": 1}, \"71\": {\"O\": 1}, \"72\": {\"O\": 1}, \"73\": {\"O\": 1}, \"74\": {\"O\": 1}, \"75\": {\"O\": 1}, \"76\": {\"O\": 1}, \"77\": {\"O\": 1}, \"78\": {\"O\": 1}, \"79\": {\"O\": 1}, \"80\": {\"O\": 1}, \"81\": {\"O\": 1}}" energy=-511.84185791015625 free_energy=-511.84185791015625 stress="0.005271587986499071 -0.00024128177028615028 -0.001236497308127582 -0.00024128177028615028 0.010621016845107079 0.002636195858940482 -0.001236497308127582 0.002636195858940482 0.01428704522550106" pbc="T T T"
Fe       5.96007607       8.43097140       0.46475490        0      -0.17002465      -0.31106198      -0.29584530
Fe       2.19348868       1.53169024       9.71475541        1      -0.20965928       0.28330591       0.28768176
Fe      -2.25889599      -2.93212909       9.73452637        2       0.26749152       0.25058857       0.16049615
Fe       1.54243323       3.93974944       0.47229159        3       0.19893423      -0.18631741      -0.34337801
H        1.43466332       5.37231999       3.12763546        4       0.05966879       0.01251248       0.04662203
H       -2.30026137       4.59139282       7.05568521        5      -0.11564622      -0.05443270      -0.04830848
H        2.28441244       0.12148847       7.05985625        6       0.04261266      -0.05557364      -0.04489781
H        6.01157905       0.90256537       3.12550938        7       0.03321594       0.04194593       0.05774244
H       -0.12243454       4.63388705       3.33586034        8      -0.08556209      -0.15471484       0.14866370
H        3.58580334       5.33031159       6.84625038        9      -0.01837362       0.00535838      -0.10047174
H        3.84047521       0.86060265       6.84203529       10       0.08113516       0.11442892      -0.10750677
H        0.11628963       0.15601019       3.33976993       11       0.08597543      -0.13697843       0.14208516
H       -0.92472453       6.81901944       4.48625782       12      -0.04009882      -0.00830892      -0.03613855
H        2.78377230       3.14567705       5.69299063       13       0.09057520       0.09001941       0.02708539
H        4.64480359      -1.32642009       5.69683480       14       0.05080393       0.00274824       0.02786094
H        0.93246932       2.34097370       4.48463649       15      -0.05096362      -0.05116151      -0.04818883
H        0.74901863       7.37167739       4.45063067       16      -0.13764203       0.00438629      -0.13702890
H        4.45267227       2.59218246       5.72878270       17      -0.11697354       0.02462550       0.13501644
H        2.97353934      -1.87549322       5.72805645       18       0.08657888      -0.05385096       0.10605471
H       -0.73487469       2.89698804       4.45311133       19       0.05206367       0.07082596      -0.12532195
H        1.41660226       5.27430536       5.74749826       20       0.06032813      -0.05716772      -0.01461449
H        5.13015939       4.68335156       4.42695328       21       0.12573214       0.09515370      -0.00603884
H        2.30411627       0.21860729       4.42472196       22       0.14752030       0.01420062       0.03241831
H       -1.41214590       0.81179845       5.75859063       23       0.05899987      -0.06103304      -0.00143713
H       -0.28569390       4.82750036       5.83911431       24       0.18595043       0.14571926      -0.02410639
H        3.43128497       5.13773767       4.34293359       25       0.13742575      -0.07334705      -0.02691876
H        4.00809205       0.66583172       4.34382477       26      -0.01625035       0.05015043      -0.01439795
H        0.28413876       0.35760514       5.84127202       27       0.08012280      -0.16889152       0.02842891
H        0.91876023      -1.55744878       7.02323974       28      -0.09567840       0.00604006      -0.01384069
H        4.65185288       2.56832644       3.15514503       29      -0.04028311      -0.07967706       0.03292909
H        2.81986849       7.04657958       3.15449102       30      -0.03569146      -0.10475215       0.04724367
H       -0.93439589       2.92784147       7.02367782       31       0.07545987      -0.01028370      -0.03286976
H       -0.82438598      -1.94196004       7.04557539       32      -0.04846679      -0.04120427      -0.10305524
H        2.91468862       2.97683707       3.13065143       33      -0.06656961       0.02547830       0.06806234
H        4.55483977       7.45045496       3.13693841       34       0.04355472       0.01567820       0.06500510
H        0.79866012       2.51984843       7.04752277       35       0.16302559       0.01576617      -0.05281312
H        0.13555480       3.78590948       9.56865646       36       0.09218990      -0.14366966      -0.14855458
H        3.89398061       6.17431015       0.60139569       37       0.16299312       0.21788856       0.01824182
H        3.58739635       1.70538526       0.59324561       38      -0.22974390       0.24104902       0.03895103
H       -0.15665735      -0.67907886       9.55937753       39      -0.30851397      -0.25460559       0.03095080
C       -0.11629126       6.17359831       1.92989787       40       0.04675436       0.02409128      -0.29710805
C        3.59349309       3.78340071       8.24955513       41      -0.06242868      -0.11855270       0.25362685
C        3.84473529      -0.68271066       8.24476918       42       0.20070663      -0.28340432       0.30744272
C        0.12525622       1.69968615       1.94152392       43       0.05046558       0.11922264      -0.36635029
C        0.36971403       5.61074791       3.25142119       44      -0.13931005       0.24912734      -0.27448452
C        4.07808770       4.34706789       6.93274656       45       0.03089134       0.07675749       0.18696868
C        3.35256448      -0.11928810       6.93521990       46       0.02195175      -0.18280730      -0.05702704
C       -0.36831319       1.13730420       3.25414074       47       0.00679660       0.13466239      -0.20925429
C        0.11758868       6.46557598       4.48282463       48       0.19302915      -0.10006258      -0.02905638
C        3.83005050       3.50559355       5.69901072       49      -0.00536681      -0.15593027      -0.19010888
C        3.60319741      -0.97146883       5.69457578       50      -0.13283989       0.23600496       0.16291746
C       -0.11428472       1.98791507       4.48327941       51       0.07209919      -0.10367280       0.15164343
C        0.40203388       5.69931522       5.77100474       52      -0.25971687      -0.21449468       0.18351495
C        4.11491912       4.26630460       4.40148188       53      -0.27013338       0.06442349       0.07199498
C        3.32916028      -0.20080792       4.40503580       54      -0.26568305       0.00497848       0.03150182
C       -0.38740923       1.22336729       5.77989499       55      -0.27670377       0.18490252      -0.02790517
C        0.41128780       5.75918588       8.29156391       56      -0.09549941      -0.26482117       0.13628960
C        4.14031516       4.20612431       1.88726738       57      -0.13141999       0.02062492      -0.21808550
C        3.30533869      -0.25517196       1.89985024       58       0.18904631       0.05416416      -0.32274190
C       -0.41552709       1.28701585       8.29168936       59      -0.07002352      -0.06141204       0.25520098
C        0.18736877      -2.37953794       7.02440613       60       0.18760382       0.14069779      -0.08183316
C        3.93277678       3.39662767       3.15239106       61       0.18792278       0.09211749       0.06656726
C        3.53680057       7.87357287       3.15834532       62       0.08495460       0.08674891       0.02848133
C       -0.21477842       2.09658976       7.02780033       63      -0.18254079      -0.03454363      -0.07957207
O        1.53831455       5.79620346       8.87314479       64       0.20733057       0.14729367      -0.08371670
O        5.27040640       4.15777322       1.31605246       65       0.20622213      -0.05849344       0.14250693
O        2.18021084      -0.30073800       1.32106244       66      -0.28591558      -0.07825102       0.08227873
O       -1.54964856       1.33463392       8.86083949       67       0.03592232       0.02203159      -0.18036574
O        0.73430058       3.25142944      10.17363038       68       0.23060790      -0.08500020       0.14209065
O       -0.77580173      -1.20754348      10.16432061       69       0.00888155       0.04426721       0.02681490
O       -0.57113187       5.01291571       8.66940471       70      -0.12008388       0.21172065      -0.15654254
O        3.15641233       4.93997220       1.48297651       71      -0.05337605      -0.12986916       0.23731934
O        4.29000270       0.47988717       1.50192147       72       0.07265884      -0.13787243       0.24646623
O        0.56826864       0.54438408       8.68585630       73      -0.00725230       0.17945148      -0.21204419
O        0.17486449       5.51821173       0.85922737       74       0.11199158      -0.12486358       0.41621226
O        3.88597218       4.43990763       9.31391813       75       0.10365212       0.17346883      -0.19273292
O        3.56804091      -0.03074086       9.31699980       76      -0.21342190       0.19651932      -0.23706666
O       -0.15020773       1.04097931       0.87199113       77      -0.22457738      -0.17843622       0.27860656
O        6.61693113       7.22004396       1.94904555       78       0.12316872       0.00077423       0.13921523
O        2.87169741       2.74000473       8.23398459       79       0.15789962       0.04247829      -0.18953058
O       -2.88406494      -1.73029103       8.22130155       80      -0.24791147       0.09617816      -0.14208584
O        0.83713325       2.74753941       1.95766694       81      -0.08256909      -0.01105633       0.22414501
82
Lattice="7.44870883 0.0 0.0 0.03931105960225618 8.944151731039343 0.0 -3.7644561297887638 -3.4522226788819785 10.18128287934542" Properties=species:S:1:pos:R:3:spacegroup_kinds:I:1:forces:R:3 spacegroup="P 1" unit_cell=conventional occupancy="_JSON {\"0\": {\"Fe\": 1}, \"1\": {\"Fe\": 1}, \"2\": {\"Fe\": 1}, \"3\": {\"Fe\": 1}, \"4\": {\"H\": 1}, \"5\": {\"H\": 1}, \"6\": {\"H\": 1}, \"7\": {\"H\": 1}, \"8\": {\"H\": 1}, \"9\": {\"H\": 1}, \"10\": {\"H\": 1}, \"11\": {\"H\": 1}, \"12\": {\"H\": 1}, \"13\": {\"H\": 1}, \"14\": {\"H\": 1}, \"15\": {\"H\": 1}, \"16\": {\"H\": 1}, \"17\": {\"H\": 1}, \"18\": {\"H\": 1}, \"19\": {\"H\": 1}, \"20\": {\"H\": 1}, \"21\": {\"H\": 1}, \"22\": {\"H\": 1}, \"23\": {\"H\": 1}, \"24\": {\"H\": 1}, \"25\": {\"H\": 1}, \"26\": {\"H\": 1}, \"27\": {\"H\": 1}, \"28\": {\"H\": 1}, \"29\": {\"H\": 1}, \"30\": {\"H\": 1}, \"31\": {\"H\": 1}, \"32\": {\"H\": 1}, \"33\": {\"H\": 1}, \"34\": {\"H\": 1}, \"35\": {\"H\": 1}, \"36\": {\"H\": 1}, \"37\": {\"H\": 1}, \"38\": {\"H\": 1}, \"39\": {\"H\": 1}, \"40\": {\"C\": 1}, \"41\": {\"C\": 1}, \"42\": {\"C\": 1}, \"43\": {\"C\": 1}, \"44\": {\"C\": 1}, \"45\": {\"C\": 1}, \"46\": {\"C\": 1}, \"47\": {\"C\": 1}, \"48\": {\"C\": 1}, \"49\": {\"C\": 1}, \"50\": {\"C\": 1}, \"51\": {\"C\": 1}, \"52\": {\"C\": 1}, \"53\": {\"C\": 1}, \"54\": {\"C\": 1}, \"55\": {\"C\": 1}, \"56\": {\"C\": 1}, \"57\": {\"C\": 1}, \"58\": {\"C\": 1}, \"59\": {\"C\": 1}, \"60\": {\"C\": 1}, \"61\": {\"C\": 1}, \"62\": {\"C\": 1}, \"63\": {\"C\": 1}, \"64\": {\"O\": 1}, \"65\": {\"O\": 1}, \"66\": {\"O\": 1}, \"67\": {\"O\": 1}, \"68\": {\"O\": 1}, \"69\": {\"O\": 1}, \"70\": {\"O\": 1}, \"71\": {\"O\": 1}, \"72\": {\"O\": 1}, \"73\": {\"O\": 1}, \"74\": {\"O\": 1}, \"75\": {\"O\": 1}, \"76\": {\"O\": 1}, \"77\": {\"O\": 1}, \"78\": {\"O\": 1}, \"79\": {\"O\": 1}, \"80\": {\"O\": 1}, \"81\": {\"O\": 1}}" energy=-511.84637451171875 free_energy=-511.84637451171875 stress="0.006096342578530312 -0.0009989496320486069 -0.0013521654764190316 -0.0009989496320486069 0.01093036774545908 0.0030282435473054647 -0.0013521654764190316 0.0030282435473054647 0.013772069476544857" pbc="T T T"
Fe       5.95727694       8.43005796       0.46569499        0      -0.12909177      -0.29741585      -0.29847461
Fe       2.19462897       1.53391128       9.71769295        1      -0.22772691       0.28721291       0.27297512
Fe      -2.25601279      -2.93044886       9.73632888        2       0.22845089       0.25275105       0.15150020
Fe       1.54148316       3.93764721       0.47142482        3       0.20623691      -0.16839409      -0.35105500
H        1.43205005       5.37140693       3.12768225        4       0.09687571       0.02460913       0.03496750
H       -2.29868618       4.59403254       7.05789022        5      -0.10059536      -0.05397247      -0.05086482
H        2.28172307       0.12212040       7.05737059        6       0.16892253      -0.07315472      -0.04763548
H        6.01112232       0.90357560       3.12455326        7      -0.00098559       0.04146611       0.06069525
H       -0.12071382       4.63514416       3.33485167        8      -0.10530101      -0.16044219       0.15296774
H        3.58366633       5.33295354       6.84564446        9       0.03976585      -0.07638678      -0.09421094
H        3.84026370       0.86128443       6.83921666       10       0.10081331       0.12955338      -0.10766162
H        0.11349541       0.15370987       3.34232934       11       0.04882488      -0.04282261       0.13345098
H       -0.92717714       6.82011214       4.48684284       12      -0.01246220      -0.01432854      -0.03678804
H        2.78112048       3.14316250       5.69259726       13       0.22428997       0.13727663       0.03137683
H        4.64255831      -1.32928552       5.69776274       14       0.03261089       0.01499634       0.01692728
H        0.92962746       2.33880310       4.48521638       15      -0.01818781      -0.03224748      -0.06246087
H        0.74633716       7.37274381       4.44925742       16      -0.10829210       0.04967296      -0.12777282
H        4.45479986       2.59425315       5.73067982       17      -0.10144971      -0.01085099       0.11388779
H        2.97621247      -1.87291396       5.72750179       18      -0.04992243      -0.21314326       0.12249952
H       -0.73419226       2.89973384       4.45327743       19       0.04453450       0.05508226      -0.12169476
H        1.41871322       5.27723245       5.74699993       20      -0.01925763      -0.02380969      -0.01870529
H        5.13254067       4.68343091       4.42563994       21       0.04001416       0.06186376       0.00589702
H        2.30232122       0.21756547       4.42615578       22       0.15428028       0.01589353       0.02316396
H       -1.41027350       0.80911964       5.75580395       23       0.09863752      -0.03433546       0.02738834
H       -0.28353103       4.82762032       5.83898379       24       0.17819481       0.15023877      -0.03591235
H        3.43413324       5.13618940       4.34001390       25       0.08015548      -0.01132844      -0.00590468
H        4.00833268       0.66798923       4.34328517       26      -0.07472952      -0.03147847      -0.00548394
H        0.28507623       0.35549939       5.84235568       27       0.06378290      -0.10166143       0.03301399
H        0.91621606      -1.55669875       7.02563009       28      -0.09030784       0.00929219      -0.02334330
H        4.65206919       2.56560154       3.15283471       29      -0.09708844       0.00162174       0.05028608
H        2.82025033       7.04642751       3.15304849       30      -0.08068825      -0.16126011       0.05241235
H       -0.93697441       2.92699037       7.02633479       31       0.04580957       0.03358508      -0.04361627
H       -0.82714888      -1.94086812       7.04512787       32       0.01096421      -0.07638515      -0.08731278
H        2.91374598       2.97557943       3.13279798       33      -0.01982190       0.05156220       0.06889109
H        4.55746472       7.45121449       3.13545979       34      -0.05013221       0.04562287       0.06954733
H        0.80019020       2.52257879       7.04981436       35       0.05222024      -0.01385286      -0.05591534
H        0.13849390       3.78772279       9.56801851       36       0.03224770      -0.13957047      -0.17410931
H        3.89342758       6.17507463       0.60238591       37       0.12040047       0.20105386       0.02362327
H        3.58641447       1.70814725       0.59525143       38      -0.21459062       0.23084730       0.05167785
H       -0.15571543      -0.67968399       9.56228771       39      -0.25746006      -0.20537075      -0.02729524
C       -0.11622268       6.17157242       1.93280285       40      -0.09332600       0.26932582      -0.47761706
C        3.59214566       3.78627707       8.24968394       41      -0.08181069      -0.31744933       0.14548886