64
Lattice="9.67921994 0.0 0.0 0.10766593951077501 11.080897202058114 0.0 2.9471726364756794 -0.6520323528075525 10.806349951366764" Properties=species:S:1:pos:R:3:spacegroup_kinds:I:1:forces:R:3 spacegroup="P 1" unit_cell=conventional occupancy="_JSON {\"0\": {\"Zn\": 1}, \"1\": {\"Zn\": 1}, \"2\": {\"H\": 1}, \"3\": {\"H\": 1}, \"4\": {\"H\": 1}, \"5\": {\"H\": 1}, \"6\": {\"H\": 1}, \"7\": {\"H\": 1}, \"8\": {\"H\": 1}, \"9\": {\"H\": 1}, \"10\": {\"H\": 1}, \"11\": {\"H\": 1}, \"12\": {\"H\": 1}, \"13\": {\"H\": 1}, \"14\": {\"H\": 1}, \"15\": {\"H\": 1}, \"16\": {\"H\": 1}, \"17\": {\"H\": 1}, \"18\": {\"H\": 1}, \"19\": {\"H\": 1}, \"20\": {\"H\": 1}, \"21\": {\"H\": 1}, \"22\": {\"H\": 1}, \"23\": {\"H\": 1}, \"24\": {\"C\": 1}, \"25\": {\"C\": 1}, \"26\": {\"C\": 1}, \"27\": {\"C\": 1}, \"28\": {\"C\": 1}, \"29\": {\"C\": 1}, \"30\": {\"C\": 1}, \"31\": {\"C\": 1}, \"32\": {\"C\": 1}, \"33\": {\"C\": 1}, \"34\": {\"C\": 1}, \"35\": {\"C\": 1}, \"36\": {\"C\": 1}, \"37\": {\"C\": 1}, \"38\": {\"C\": 1}, \"39\": {\"C\": 1}, \"40\": {\"C\": 1}, \"41\": {\"C\": 1}, \"42\": {\"C\": 1}, \"43\": {\"C\": 1}, \"44\": {\"C\": 1}, \"45\": {\"C\": 1}, \"46\": {\"C\": 1}, \"47\": {\"C\": 1}, \"48\": {\"C\": 1}, \"49\": {\"C\": 1}, \"50\": {\"I\": 1}, \"51\": {\"I\": 1}, \"52\": {\"N\": 1}, \"53\": {\"N\": 1}, \"54\": {\"O\": 1}, \"55\": {\"O\": 1}, \"56\": {\"O\": 1}, \"57\": {\"O\": 1}, \"58\": {\"O\": 1}, \"59\": {\"O\": 1}, \"60\": {\"O\": 1}, \"61\": {\"O\": 1}, \"62\": {\"O\": 1}, \"63\": {\"O\": 1}}" energy=-406.77508544921875 free_energy=-406.77508544921875 stress="0.0027778800576925278 0.0014483894919976592 -0.0016370932571589947 0.0014483894919976592 0.002039341488853097 -0.0015982325421646237 -0.0016370932571589947 -0.0015982325421646237 2.150405998690985e-05" pbc="T T T"
Zn       5.10309379       5.26913127       5.41258798        0       0.19380760      -0.10212485      -0.04161005
Zn       7.87282388       5.25167920       5.23104728        1       0.12630291      -0.11878267      -0.17730607
H        8.68001913       5.01780694       9.41174078        2      -0.09727889       0.15921861       0.12389384
H        8.51285032       0.99023249       5.97982936        3       0.60520977       0.52484417       0.15025111
H        3.29690453       9.53062724       5.72844302        4       0.64654839       0.48395824      -0.49236935
H        3.62544774       0.82121660       3.82531375        5       0.13390261       0.16178900      -0.22975430
H        8.54156783       7.77924326       7.23861093        6       0.31461841       0.31952387      -0.39245537
H        8.26080727       9.18299631       8.20120790        7      -0.34977970       0.35679758       0.26016042
H       10.70797054       9.74040974       8.26989399        8      -0.20544305       0.16757762       0.17644520
H       10.38521341       8.10769446       8.88764049        9       0.15756059      -0.32606077       0.26972640
H       11.01463262       8.41180247       7.22593464       10       0.17264275      -0.39422473       0.06933601
H        2.71873423       7.75697819       4.77079648       11       0.30363283       0.54781348      -1.11201406
H        3.16163057       7.44679139       3.06445871       12       0.29668739      -0.30702767      -0.31772321
H       10.02888182       5.93894374       7.25891898       13      -0.02273671       0.05315872       0.04768106
H        1.40741159       9.07494859       2.29483745       14      -0.13923362       0.20196135      -0.04970793
H       10.33370999       7.81549915       3.32309630       15       0.29090428      -0.16146901      -0.19146627
H       10.59542462       9.35262793       4.01543263       16       0.30970779       0.38298464      -0.03965543
H        2.87308374       5.98240447       7.33729193       17       0.02734539       0.04250142      -0.01194729
H        2.99020754       4.66251485       2.28279822       18       0.21430472       0.38378990      -0.39137787
H        3.02610244       3.05610037       3.07853675       19      -0.58077633       1.08882117      -0.13946280
H       10.15198006       4.61158090       2.21884746       20      -0.20361529       0.42283323      -0.22414902
H       10.11988332       3.02010956       3.02292434       21       0.60169435       0.85540628      -0.15497258
H        4.26315386       6.13397860       1.34424957       22       0.47727162      -0.14722879      -0.30396655
H        7.18148220       5.24910324       0.64840673       23      -0.11428684       0.03005144       0.05358475
C        6.45094154       2.65916202       5.35461366       24      -0.00058738       0.92045355      -0.15111914
C       10.62324350       5.59417332       6.41723553       25       0.33926421       0.56335998       0.36605912
C        2.33566809       5.63669760       6.45716832       26      -0.03982717      -0.56749654      -0.11961722
C        6.40907161       5.40998221       2.72035305       27       2.37362576      -0.45966703      -0.23910782
C        2.40003624       4.71071258       4.42011471       28      -1.19828939      -1.21713257      -1.94786620
C        2.50295941       4.07296920       3.04158333       29       1.26344442      -1.67419398       0.56157386
C        0.94701032       4.04017817       3.00640057       30      -0.85702920      -1.51661396       0.15589942
C        6.51937808       7.85138269       5.49523217       31       1.88611293       1.76336837       0.09082070
C        6.55025284       5.33633637       7.95336286       32      -0.14478651      -0.00538781       0.56889802
C        6.30451493       5.50858554       1.24685241       33      -0.73796403       0.16158907       0.09292048
C        5.11524322       5.87721793       0.67978621       34       0.14518103       0.09729166       0.21901083
C        6.42825192       1.22132125       5.48048380       35      -0.65015537      -2.60931444      -0.15769631
C        6.63510924       5.45184514       9.44712123       36       0.14703909       0.12860979       0.29722428
C        7.83901265       5.27686415      10.07571030       37      -0.40276074      -0.29699659      -0.20032585
C        5.28121579       0.39695440       5.26254358       38       0.54318887       1.36127770       0.12174532
C        8.94691320       8.78657887       7.45385163       39      -0.71437001       0.29061320      -0.58802348
C       10.33103036       8.74421858       8.01214586       40       0.66735595       0.43593383      -0.58369076
C        2.77723549       8.20970153       3.72598971       41      -0.34920537       0.44913998       1.40005434
C        1.36883091       8.65464240       3.30257589       42       0.12246791      -0.32357568       0.22906247
C        7.58921299       0.49059561       5.78700088       43      -0.45584124      -0.97319424       0.13049948
C        7.73205404      10.15726217       5.91962497       44      -0.78586316       1.48109996      -0.54845119
C        6.58247186       9.39560779       5.63249236       45      -0.28834331      -2.15977764      -0.22489750
C        5.42781818      10.08367188       5.31695215       46      -0.07155356       1.30462646       0.26938200
C        3.96353281       9.97193964       4.92482450       47      -0.67522019      -0.98764396       0.04678640
C        3.84738606       0.47453227       4.83460887       48      -0.64408660      -0.63976991       0.32063848
C       10.68084299       4.64833973       4.36530803       49      -0.18568063       1.38372684       0.94616145
I        2.31423726       1.38923055       6.12567814       50       0.43396705      -0.12093268      -0.12489659
I        4.80965051       5.85108789      10.48421449       51       0.53456932      -0.09765463      -0.25192416
N        9.92662049       5.17617920       5.34252885       52      -0.20969364      -0.84347939      -0.56356758
N        3.09198180       5.15416343       5.41930563       53       0.52298546       1.13810837       1.56355953
O        5.33833950       3.24091166       5.10436302       54       0.16003476       0.33229327       0.07801989
O        3.73963119       9.31804222       3.69850113       55      -0.99287975      -0.49493632       0.40091604
O        7.58791310       3.22742250       5.49921313       56      -0.13012911       0.43631136      -0.01600452
O        5.38837196       5.63753256       3.41855211       57      -0.74989873       0.12886183       0.43566623
O        7.59924272       5.09984010       3.18531475       58      -1.30058730       0.27526769      -0.25428391
O        5.43154864       7.29687585       5.75774651       59      -1.09360611      -0.59361845       0.09925857
O        7.61077119       7.29326233       5.11801137       60      -0.39245117      -0.18552779       0.02171776
O        5.41061176       5.08057327       7.45425610       61      -0.04498804      -0.08618992      -0.35091612
O        7.64315959       5.49622030       7.31602316       62       0.01309484       0.03335698      -0.14613041
O        8.93982626       9.65860684       6.28098903       63       0.80447578      -1.45829761       1.17150486
64
Lattice="9.67921994 0.0 0.0 0.10766593951077501 11.080897202058114 0.0 2.9471726364756794 -0.6520323528075525 10.806349951366764" Properties=species:S:1:pos:R:3:spacegroup_kinds:I:1:forces:R:3 spacegroup="P 1" unit_cell=conventional occupancy="_JSON {\"0\": {\"Zn\": 1}, \"1\": {\"Zn\": 1}, \"2\": {\"H\": 1}, \"3\": {\"H\": 1}, \"4\": {\"H\": 1}, \"5\": {\"H\": 1}, \"6\": {\"H\": 1}, \"7\": {\"H\": 1}, \"8\": {\"H\": 1}, \"9\": {\"H\": 1}, \"10\": {\"H\": 1}, \"11\": {\"H\": 1}, \"12\": {\"H\": 1}, \"13\": {\"H\": 1}, \"14\": {\"H\": 1}, \"15\": {\"H\": 1}, \"16\": {\"H\": 1}, \"17\": {\"H\": 1}, \"18\": {\"H\": 1}, \"19\": {\"H\": 1}, \"20\": {\"H\": 1}, \"21\": {\"H\": 1}, \"22\": {\"H\": 1}, \"23\": {\"H\": 1}, \"24\": {\"C\": 1}, \"25\": {\"C\": 1}, \"26\": {\"C\": 1}, \"27\": {\"C\": 1}, \"28\": {\"C\": 1}, \"29\": {\"C\": 1}, \"30\": {\"C\": 1}, \"31\": {\"C\": 1}, \"32\": {\"C\": 1}, \"33\": {\"C\": 1}, \"34\": {\"C\": 1}, \"35\": {\"C\": 1}, \"36\": {\"C\": 1}, \"37\": {\"C\": 1}, \"38\": {\"C\": 1}, \"39\": {\"C\": 1}, \"40\": {\"C\": 1}, \"41\": {\"C\": 1}, \"42\": {\"C\": 1}, \"43\": {\"C\": 1}, \"44\": {\"C\": 1}, \"45\": {\"C\": 1}, \"46\": {\"C\": 1}, \"47\": {\"C\": 1}, \"48\": {\"C\": 1}, \"49\": {\"C\": 1}, \"50\": {\"I\": 1}, \"51\": {\"I\": 1}, \"52\": {\"N\": 1}, \"53\": {\"N\": 1}, \"54\": {\"O\": 1}, \"55\": {\"O\": 1}, \"56\": {\"O\": 1}, \"57\": {\"O\": 1}, \"58\": {\"O\": 1}, \"59\": {\"O\": 1}, \"60\": {\"O\": 1}, \"61\": {\"O\": 1}, \"62\": {\"O\": 1}, \"63\": {\"O\": 1}}" energy=-405.4773864746094 free_energy=-405.4773864746094 stress="0.00489730155095458 0.0009656994952820241 -0.004938346799463034 0.0009656994952820241 -0.0009521150495857 -0.002551008714362979 -0.004938346799463034 -0.002551008714362979 2.9852295483578928e-05" pbc="T T T"
Zn       5.13100413       5.24397638       5.38423547        0       0.22397298       0.05547348       0.05905250
Zn       7.90239123       5.26746831       5.21069101        1       0.15283383      -0.07967525      -0.32506573
H        8.70865900       4.98926835       9.38277481        2      -0.24700049       0.16914083       0.14757469
H        8.49398762       0.96091201       5.95038678        3       2.05358577       1.25519633       0.45896587
H        3.27011537       9.50428832       5.74929721        4       1.57928169       0.92168355      -1.54878569
H        3.65470848       0.79289486       3.79857751        5       0.05030228       0.21126390      -0.21272364
H        8.52488585       7.80030991       7.26843599        6       0.22211337      -0.92423093      -0.83024710
H        8.25994198       9.15505763       8.18210304        7       0.02121517       0.33701617      -0.24870667
H       10.73548868       9.71284252       8.24511351        8      -0.03105035       1.28695643       0.50808841
H       10.35580759       8.11054738       8.91251618        9       0.19918531      -0.18561319       0.15385257
H       11.01616908       8.40260548       7.21278852       10      -0.38253260      -0.16014355       1.06342506
H        2.69724475       7.73580407       4.76591221       11       0.55199587       0.79459494      -1.48880672
H        3.14574175       7.43915804       3.05918647       12       0.56914878      -0.80497205      -0.77162504
H       10.05706181       5.91248097       7.23960128       13      -0.08120550       0.18236199       0.06581912
H        1.43333328       9.05388543       2.30845195       14      -0.28535932       0.68831754      -1.31533027
H       10.30437621       7.83843679       3.35308407       15       0.37410501      -0.46610039      -0.45364127
H       10.57287630       9.32371882       3.98855635       16       0.33203250       0.89397460       0.23987404
H        2.90095746       5.98174756       7.31825627       17       0.07824124      -0.00949529       0.18123545
H        3.01595891       4.63891884       2.25442857       18       0.05001913       0.28436625      -0.26518247
H        3.03930862       3.03787781       3.06027776       19      -0.50189757       0.92435700      -0.12365633
H       10.17892577       4.58526803       2.22260911       20      -0.55429751       0.79090858      -0.90047848
H       10.09475788       3.03206761       3.05102193       21       0.69558769       0.41493738      -0.46105841
H        4.24705499       6.10397860       1.31427208       22       1.14468288      -0.31731957      -0.70833772
H        7.21120880       5.22298828       0.61852719       23      -0.61467880       0.29083583       0.43374163
C        6.47523298       2.66364273       5.33321673       24       0.65934128       0.37322026      -0.07882831
C       10.65158962       5.59495113       6.38956422       25       0.80381131       0.50702643       0.80490732
C        2.36005554       5.61251372       6.45718971       26      -0.06505775      -0.38541979      -0.59037870
C        6.39081709       5.38486308       2.69481308       27       5.19289398      -0.43054837      -0.95256197
C        2.42935861       4.71847201       4.43879092       28      -3.69044662      -3.07584095      -5.36823034
C        2.51943925       4.04629457       3.01291299       29       1.23818398      -1.06488681       1.39616466
C        0.97162791       4.01166388       2.97824112       30      -0.80157816      -1.41782236       1.08183265
C        6.53569466       7.82465303       5.47197064       31       2.93047285       2.81563449      -0.13115150
C        6.57994121       5.30908588       7.92432263       32      -0.04402179       0.78621048       0.85372216
C        6.31765615       5.51088752       1.21880597       33       0.31051910      -0.60898662       0.20724516
C        5.14240196       5.84812736       0.65329576       34      -1.32470226       0.59342301       0.10131128
C        6.45788464       1.19142421       5.45070378       35      -0.80118334      -1.59766483      -0.23487495
C        6.64612289       5.47596919       9.41942591       36       0.86082673      -0.50122827       0.65166944
C        7.86513318       5.24996445      10.04824852       37      -1.12468445       0.04521655      -0.47690475
C        5.30769827       0.36706098       5.23279213       38       0.51373285       1.62905109       0.13063322
C        8.97623503       8.75934309       7.42533828       39      -1.63808346       2.03855777       0.48687214
C       10.31697841       8.75844421       8.03917276       40       1.59876990      -1.46455109      -1.93382764
C        2.80044545       8.20405697       3.70886836       41      -1.56898630       0.51974106       2.15159059
C        1.36032449       8.65095965       3.28025845       42       0.78235328      -0.99151754       1.45088458
C        7.61570227       0.46097015       5.75762358       43      -1.70215631      -1.44879234      -0.15065910
C        7.76135037      10.13056580       5.88991834       44      -0.82856745       1.41833425      -0.54900187
C        6.60870199       9.37860420       5.60306358       45      -0.38814586      -2.45821238      -0.15280978
C        5.44930109      10.05523368       5.28854962       46       0.14143822       1.36130035       0.36446512
C        3.99315048       9.94511426       4.89821390       47      -1.66179144      -1.35179520       0.98475206
C        3.87627796       0.44574265       4.80703089       48      -0.89105308      -0.48852873       0.50627494
C       10.65152523       4.61861892       4.33548344       49       2.55148196       2.11955023       1.66479146
I        2.29863408       1.36257821       6.14247929       50       0.75695902      -0.27546951      -0.42645544
I        4.78184612       5.82111707      10.46459700       51       0.88049322      -0.09538703      -0.40973437
N        9.95544459       5.19514803       5.31361788       52      -1.20707130      -1.14723027      -0.89369905
N        3.12108872       5.14604060       5.38944864       53       1.10143435       1.90928626       3.49136782
O        5.36632472       3.24606532       5.08157371       54       0.13190168       0.06594652       0.09054308
O        3.76769938       9.29010185       3.66993207       55      -0.97816330      -0.38593552       0.56769145
O        7.61723431       3.25178064       5.47915131       56      -0.78982216      -0.26929453      -0.05261700
O        5.41236641       5.61829513       3.39150233       57      -2.39697504       0.35387567       1.40680301
O        7.62840333       5.11482216       3.15614973       58      -2.18065596       0.19803761      -0.48067766
O        5.46078581       7.28668726       5.72979269       59      -2.05763578      -1.33043802       0.27039421
O        7.63992245       7.29735168       5.09109387       60      -0.39719805      -0.49136770       0.01535796
O        5.43892491       5.09903676       7.42539541       61      -0.39086038      -0.40767151      -0.54877186
O        7.67249951       5.48359495       7.29122471       62       0.06238070      -0.11075237      -0.07960916
O        8.96808928       9.62904708       6.25143543       63       0.81156540      -1.48890531       1.17353606
64
Lattice="9.67921994 0.0 0.0 0.10766593951077501 11.080897202058114 0.0 2.9471726364756794 -0.6520323528075525 10.806349951366764" Properties=species:S:1:pos:R:3:spacegroup_kinds:I:1:forces:R:3 spacegroup="P 1" unit_cell=conventional occupancy="_JSON {\"0\": {\"Zn\": 1}, \"1\": {\"Zn\": 1}, \"2\": {\"H\": 1}, \"3\": {\"H\": 1}, \"4\": {\"H\": 1}, \"5\": {\"H\": 1}, \"6\": {\"H\": 1}, \"7\": {\"H\": 1}, \"8\": {\"H\": 1}, \"9\": {\"H\": 1}, \"10\": {\"H\": 1}, \"11\": {\"H\": 1}, \"12\": {\"H\": 1}, \"13\": {\"H\": 1}, \"14\": {\"H\": 1}, \"15\": {\"H\": 1}, \"16\": {\"H\": 1}, \"17\": {\"H\": 1}, \"18\": {\"H\": 1}, \"19\": {\"H\": 1}, \"20\": {\"H\": 1}, \"21\": {\"H\": 1}, \"22\": {\"H\": 1}, \"23\": {\"H\": 1}, \"24\": {\"C\": 1}, \"25\": {\"C\": 1}, \"26\": {\"C\": 1}, \"27\": {\"C\": 1}, \"28\": {\"C\": 1}, \"29\": {\"C\": 1}, \"30\": {\"C\": 1}, \"31\": {\"C\": 1}, \"32\": {\"C\": 1}, \"33\": {\"C\": 1}, \"34\": {\"C\": 1}, \"35\": {\"C\": 1}, \"36\": {\"C\": 1}, \"37\": {\"C\": 1}, \"38\": {\"C\": 1}, \"39\": {\"C\": 1}, \"40\": {\"C\": 1}, \"41\": {\"C\": 1}, \"42\": {\"C\": 1}, \"43\": {\"C\": 1}, \"44\": {\"C\": 1}, \"45\": {\"C\": 1}, \"46\": {\"C\": 1}, \"47\": {\"C\": 1}, \"48\": {\"C\": 1}, \"49\": {\"C\": 1}, \"50\": {\"I\": 1}, \"51\": {\"I\": 1}, \"52\": {\"N\": 1}, \"53\": {\"N\": 1}, \"54\": {\"O\": 1}, \"55\": {\"O\": 1}, \"56\": {\"O\": 1}, \"57\": {\"O\": 1}, \"58\": {\"O\": 1}, \"59\": {\"O\": 1}, \"60\": {\"O\": 1}, \"61\": {\"O\": 1}, \"62\": {\"O\": 1}, \"63\": {\"O\": 1}}" energy=-404.1630859375 free_energy=-404.1630859375 stress="0.0073612448759377 0.000694926071446389 -0.006857291795313358 0.000694926071446389 -0.0008366821566596627 -0.0026357765309512615 -0.006857291795313358 -0.0026357765309512615 0.0015231008874252439" pbc="T T T"
Zn       5.16047046       5.23058192       5.35755446        0       0.19912547       0.07645375       0.18346062
Zn       7.92991284       5.29221553       5.19907884        1       0.16743346      -0.03489911      -0.55262679
H        8.73763521       4.99960215       9.35666992        2      -0.05791925       0.02580227      -0.04240592
H        8.50452193       0.93099847       5.92119823        3       2.62749124       1.57398140       0.59709716
H        3.24019166       9.47623692       5.74311071        4       2.20467615       1.12013304      -2.02454782
H        3.68456240       0.76852117       3.77298621        5      -0.04214965       0.28403446      -0.31652978
H        8.50460814       7.78098348       7.29595909        6       0.44154114      -0.81348091      -1.04354572
H        8.25840847       9.12836985       8.15312636        7       0.30204952       0.36453909      -0.53018761
H       10.73307351       9.68296995       8.22047066        8      -0.04585996       1.40711963       0.51663613
H       10.32762178       8.10677099       8.93878848        9       0.10825451      -0.00714634      -0.21546392
H       10.99170288       8.37804480       7.23130056       10      -0.03504197      -0.38488060       0.84278691
H        2.66758610       7.70989056       4.74022550       11       0.89447832       0.85654932      -1.61236262
H        3.16554025       7.41609929       3.04091953       12       0.71865046      -1.16764724      -1.06632197
H       10.06881035       5.91168428       7.22766143       13       0.44931841      -0.11233737      -0.56774688
H        1.45901392       9.03336400       2.28092247       14      -0.43824735       0.54459739      -1.16487002
H       10.28509221       7.84057783       3.37263729       15       0.48362964      -0.58671468      -0.63578856
H       10.59107092       9.30504444       3.96322958       16       0.45925438       0.96625465       0.18899828
H        2.92882760       5.99137878       7.31460197       17      -0.30966246      -0.41018030      -0.53165394
H        3.04347047       4.60977827       2.22488283       18       0.07356143       0.19933024      -0.28522292
H        3.01495882       3.00915118       3.04992993       19      -0.07163437       0.49831760      -0.18441373
H       10.16880501       4.55745584       2.22395258       20      -0.60869610       0.88299668      -1.15974426
H       10.06735070       3.00418318       3.08070233       21       1.17152667       0.84274244      -0.71949899
H        4.22029314       6.07406503       1.28459213       22       1.83238792      -0.47574180      -1.09928906
H        7.23980328       5.20842502       0.58925079       23      -0.87942344       0.32181993       0.68376112
C        6.50492650       2.64035132       5.32854525       24       0.54831743       1.81122828      -0.54057693
C       10.68010968       5.56828422       6.36285698       25       0.45230168       1.04363453       1.85004139
C        2.38967698       5.58450327       6.43394699       26       0.29689685       0.17205942       0.23268351
C        6.38095920       5.37005976       2.67487302       27       7.76391840      -0.97370005      -1.99928808
C        2.45657853       4.69643511       4.41125474       28      -3.56518459      -2.88813853      -4.84162235
C        2.54651250       4.01803104       2.98358736       29       0.68158913      -0.70425200       1.46645069
C        0.99362204       3.98355017       2.94875722       30      -1.19222558      -1.79684401       1.68844879
C        6.52047611       7.83116082       5.47498105       31       6.90368652       3.05853248      -1.32375383
C        6.60692873       5.31475494       7.90626713       32       0.35776150       0.98718238       0.74555135
C        6.33131075       5.48099223       1.19611007       33       0.41239929      -0.59736323       0.05928627
C        5.16291307       5.81855836       0.62363285       34      -2.01059508       0.66053885       0.43366715
C        6.48656279       1.16192798       5.42075038       35      -0.80385363      -1.10513306      -0.12804732
C        6.67252270       5.48187157       9.39848749       36       0.82439804      -0.70165348       0.79572910
C        7.89294701       5.22041453      10.01906211       37      -1.60698628       0.45036000      -0.29452527
C        5.33723812       0.33922734       5.20423846       38       0.24330951       1.80615723       0.00948830
C        9.00523080       8.73302891       7.39579183       39      -3.46659446       2.02142167       0.76997429
C       10.29063614       8.73592158       8.03660710       40       2.62978792      -1.58393121      -1.02633727
C        2.82866871       8.17714014       3.67935221       41      -2.34653902       0.80392718       2.63417912
C        1.36839174       8.62348781       3.25348566       42       1.03615451      -0.71950376       1.40883565
C        7.64084057       0.43290528       5.73045500       43      -2.04796004      -1.74964190      -0.28249824
C        7.78894907      10.10296387       5.86009959       44      -0.62865114       1.31340587      -0.46591121
C        6.63587831       9.35572583       5.57403936       45      -0.56533694      -2.12049603       0.07349123
C        5.47922319      10.03073804       5.25882472       46      -0.08880377       1.45639443       0.36983234
C        4.02274109       9.91517292       4.86875811       47      -2.22497797      -1.35970008       1.44832230
C        3.90105965       0.42256767       4.77801614       48      -0.76471364      -0.62075680       0.79950190
C       10.67586192       4.59357361       4.30719060       49       2.67442727       2.49245167       2.06683183
I        2.32093478       1.33511895       6.16209558       50       0.88834018      -0.33681604      -0.60041761
I        4.75287142       5.79178186      10.45869094       51       1.28093004      -0.13078941      -0.58912033
N        9.98521206       5.20512217       5.29173938       52      -1.25468183      -1.71668673      -1.70455408
N        3.14984565       5.14986992       5.36569622       53       0.82929218       1.46245050       2.78856444
O        5.38841939       3.25622082       5.06917971       54       0.88556659      -0.90010929       0.35057887
O        3.79762602       9.26054098       3.64033195       55      -1.03006601      -0.43664169       0.61170566
O        7.64514557       3.27942406       5.45091056       56      -1.49145973      -1.35618067       0.07821850
O        5.43939190       5.62294718       3.36623995       57      -4.03806686       0.78974795       2.58955669
O        7.65649608       5.09816979       3.12641272       58      -2.86167836       0.31791946      -0.49458876
O        5.48332975       7.29668293       5.70476387       59      -4.62263727      -2.69379473       0.86997879
O        7.66717669       7.30244508       5.08144488       60      -1.55285192      -0.07666427       0.38995615
O        5.46868787       5.10152718       7.41308414       61      -0.56816888      -0.41903895      -0.78492546
O        7.70219654       5.50601832       7.26525536       62      -0.31039226      -0.21937993       0.27237815
O        8.99726752       9.59946791       6.22730480       63       0.68860197      -1.41183829       1.01239693
64
Lattice="9.67921994 0.0 0.0 0.10766593951077501 11.080897202058114 0.0 2.9471726364756794 -0.6520323528075525 10.806349951366764" Properties=species:S:1:pos:R:3:spacegroup_kinds:I:1:forces:R:3 spacegroup="P 1" unit_cell=conventional occupancy="_JSON {\"0\": {\"Zn\": 1}, \"1\": {\"Zn\": 1}, \"2\": {\"H\": 1}, \"3\": {\"H\": 1}, \"4\": {\"H\": 1}, \"5\": {\"H\": 1}, \"6\": {\"H\": 1}, \"7\": {\"H\": 1}, \"8\": {\"H\": 1}, \"9\": {\"H\": 1}, \"10\": {\"H\": 1}, \"11\": {\"H\": 1}, \"12\": {\"H\": 1}, \"13\": {\"H\": 1}, \"14\": {\"H\": 1}, \"15\": {\"H\": 1}, \"16\": {\"H\": 1}, \"17\": {\"H\": 1}, \"18\": {\"H\": 1}, \"19\": {\"H\": 1}, \"20\": {\"H\": 1}, \"21\": {\"H\": 1}, \"22\": {\"H\": 1}, \"23\": {\"H\": 1}, \"24\": {\"C\": 1}, \"25\": {\"C\": 1}, \"26\": {\"C\": 1}, \"27\": {\"C\": 1}, \"28\": {\"C\": 1}, \"29\": {\"C\": 1}, \"30\": {\"C\": 1}, \"31\": {\"C\": 1}, \"32\": {\"C\": 1}, \"33\": {\"C\": 1}, \"34\": {\"C\": 1}, \"35\": {\"C\": 1}, \"36\": {\"C\": 1}, \"37\": {\"C\": 1}, \"38\": {\"C\": 1}, \"39\": {\"C\": 1}, \"40\": {\"C\": 1}, \"41\": {\"C\": 1}, \"42\": {\"C\": 1}, \"43\": {\"C\": 1}, \"44\": {\"C\": 1}, \"45\": {\"C\": 1}, \"46\": {\"C\": 1}, \"47\": {\"C\": 1}, \"48\": {\"C\": 1}, \"49\": {\"C\": 1}, \"50\": {\"I\": 1}, \"51\": {\"I\": 1}, \"52\": {\"N\": 1}, \"53\": {\"N\": 1}, \"54\": {\"O\": 1}, \"55\": {\"O\": 1}, \"56\": {\"O\": 1}, \"57\": {\"O\": 1}, \"58\": {\"O\": 1}, \"59\": {\"O\": 1}, \"60\": {\"O\": 1}, \"61\": {\"O\": 1}, \"62\": {\"O\": 1}, \"63\": {\"O\": 1}}" energy=-401.93402099609375 free_energy=-401.93402099609375 stress="0.0064408183097839355 0.0013590273447334766 -0.007677100598812103 0.0013590273447334766 -0.0003486497444100678 -0.00377595704048872 -0.007677100598812103 -0.00377595704048872 0.0019663723651319742" pbc="T T T"
Zn       5.18888594       5.21148607       5.33424207        0       0.16095966       0.17349844       0.36401469
Zn       7.95974048       5.26635040       5.17253507        1       0.17475598       0.51793879      -0.74439347
H        8.76696559       4.99726559       9.32743722        2       0.05470991      -0.04817301      -0.13840653
H        8.49595481       0.90115529       5.89392387        3       4.11930656       2.39770603       0.94433200
H        3.21102762       9.44670937       5.71956155        4       2.66711473       1.25582647      -2.16184282
H        3.71220788       0.75483633       3.74541274        5      -0.08243252       0.21524319      -0.21900304
H        8.48582560       7.76236249       7.32073019        6       0.72977084      -0.52299941      -1.23315895