72
Lattice="4.74527147 0.0 0.0 0.7050899467269178 14.351971083816949 0.0 0.02913707010325787 5.962292211556168 16.395556053408868" Properties=species:S:1:pos:R:3:spacegroup_kinds:I:1:forces:R:3 spacegroup="P 1" unit_cell=conventional occupancy="_JSON {\"0\": {\"Cu\": 1}, \"1\": {\"Cu\": 1}, \"2\": {\"Cu\": 1}, \"3\": {\"Cu\": 1}, \"4\": {\"P\": 1}, \"5\": {\"P\": 1}, \"6\": {\"P\": 1}, \"7\": {\"P\": 1}, \"8\": {\"H\": 1}, \"9\": {\"H\": 1}, \"10\": {\"H\": 1}, \"11\": {\"H\": 1}, \"12\": {\"H\": 1}, \"13\": {\"H\": 1}, \"14\": {\"H\": 1}, \"15\": {\"H\": 1}, \"16\": {\"H\": 1}, \"17\": {\"H\": 1}, \"18\": {\"H\": 1}, \"19\": {\"H\": 1}, \"20\": {\"H\": 1}, \"21\": {\"H\": 1}, \"22\": {\"H\": 1}, \"23\": {\"H\": 1}, \"24\": {\"C\": 1}, \"25\": {\"C\": 1}, \"26\": {\"C\": 1}, \"27\": {\"C\": 1}, \"28\": {\"C\": 1}, \"29\": {\"C\": 1}, \"30\": {\"C\": 1}, \"31\": {\"C\": 1}, \"32\": {\"C\": 1}, \"33\": {\"C\": 1}, \"34\": {\"C\": 1}, \"35\": {\"C\": 1}, \"36\": {\"C\": 1}, \"37\": {\"C\": 1}, \"38\": {\"C\": 1}, \"39\": {\"C\": 1}, \"40\": {\"C\": 1}, \"41\": {\"C\": 1}, \"42\": {\"C\": 1}, \"43\": {\"C\": 1}, \"44\": {\"C\": 1}, \"45\": {\"C\": 1}, \"46\": {\"C\": 1}, \"47\": {\"C\": 1}, \"48\": {\"C\": 1}, \"49\": {\"C\": 1}, \"50\": {\"S\": 1}, \"51\": {\"S\": 1}, \"52\": {\"S\": 1}, \"53\": {\"S\": 1}, \"54\": {\"Br\": 1}, \"55\": {\"Br\": 1}, \"56\": {\"Br\": 1}, \"57\": {\"Br\": 1}, \"58\": {\"N\": 1}, \"59\": {\"N\": 1}, \"60\": {\"O\": 1}, \"61\": {\"O\": 1}, \"62\": {\"O\": 1}, \"63\": {\"O\": 1}, \"64\": {\"O\": 1}, \"65\": {\"O\": 1}, \"66\": {\"O\": 1}, \"67\": {\"O\": 1}, \"68\": {\"O\": 1}, \"69\": {\"O\": 1}, \"70\": {\"O\": 1}, \"71\": {\"O\": 1}}" energy=-460.97674560546875 free_energy=-460.97674560546875 stress="-0.0017132076900452375 0.0014305151998996735 -0.0009228051640093327 0.0014305151998996735 -0.000286459835479036 0.00042246244265697896 -0.0009228051640093327 0.00042246244265697896 -0.006135573145002127" pbc="T T T"
Cu       1.94100483       7.30588564       3.69830348        0       0.07760422      -0.15342574      -0.06725297
Cu       3.53876635      13.00837364      12.69813475        1      -0.09778050       0.14994296       0.07105118
Cu       1.48815106       7.16968932       0.86816779        2      -0.00049469       0.06241956       0.05750977
Cu       3.98921904      13.14448455      15.52939416        3       0.01162392      -0.06390364      -0.07252665
P        3.85933294       8.95494209       1.83673637        4       0.11008964      -0.34453142       0.17739186
P        1.61786580      11.35912706      14.55693807        5      -0.01516515       0.34138668      -0.13288942
P        4.31257777       5.57345175       2.67082285        6      -0.27215925       0.22364748       0.02983647
P        1.16603008      14.74093996      13.72326401        7       0.21504283      -0.17074740       0.00517505
H        2.17843859      16.33154714      16.19234888        8       0.01903642       0.11292687       0.01652609
H        3.30036691       3.98253860       0.20281697        9       0.01323956      -0.06774176       0.02627591
H        3.65101343      14.04003104       2.05645071       10       0.01796148      -0.05827588       0.06519114
H        1.82540188       6.27477806      14.33860020       11      -0.01637120       0.07372625      -0.06419799
H        4.61866430      15.31141463       4.73927975       12       0.02945112       0.09492274       0.01967579
H        0.85977929       5.00318340      11.65459246       13      -0.01885509      -0.06502306      -0.03642659
H        0.99336276       3.26202060       1.24665654       14      -0.01975362      -0.08210191      -0.00379287
H        4.48550165      17.05228131      15.14931206       15       0.04298817       0.10181952      -0.03724542
H        2.70511508       9.88667799       4.91303320       16       0.06484397       0.07447655       0.03832740
H        2.77322063      10.42727933      11.48189073       17      -0.02971807      -0.05371800      -0.08048315
H        2.06061297      11.22699747       6.90061405       18       0.00935437      -0.00438663      -0.00549303
H        3.41732385       9.08825501       9.49373903       19      -0.03198966      -0.04194991      -0.00060627
H        4.00537374       8.06521106       7.88977237       20       0.00770730       0.01471561      -0.00487635
H        1.47166620      12.24996690       8.50442848       21       0.04942328       0.01688007      -0.03513063
H        4.75813901       6.90342049       5.83084609       22      -0.02247603      -0.05368447       0.05690083
H        0.72065954      13.41225556      10.56405628       23       0.02217326       0.05102026      -0.05257305
C        3.53030584      10.69348900       1.48829728       24      -0.21914166       0.09765932      -0.16014548
C        1.95026988       9.62160750      14.90663385       25       0.20642962      -0.05485919       0.17856807
C        2.66520100      11.04560061       0.46852974       26      -0.13847873       0.04192173      -0.06222378
C        2.81418908       9.27019369      15.92789124       27       0.10480429      -0.11639500      -0.00112596
C        3.46436005      13.03209036       1.70492392       28      -0.00487491       0.01416281       0.00359091
C        2.01374189       7.28316053      14.68902993       29       0.01596943       0.03143605       0.02513465
C        3.96735440      11.85851589       2.20156703       30       0.16337204      -0.11566663       0.30496582
C        1.51140967       8.45915676      14.19408412       31      -0.16240346       0.00056735      -0.32814670
C        4.43013590       3.79634458       2.94108641       32       0.14416334      -0.13249606      -0.00045045
C        1.04654333      16.52013479      13.45309078       33      -0.13503525       0.10589817      -0.01809762
C        3.87246120       3.06020715       4.03802448       34      -0.00585467       0.02725193       0.15551847
C        1.60169608      17.25871500      12.35619835       35       0.10165113      -0.19464463      -0.19020510
C        4.20911539       1.72640441       4.03056269       36       0.01360747       0.01991444      -0.00579000
C        1.27021397      18.59015745      12.36414949       37      -0.08525357       0.06499091       0.03835583
C        0.43946921       2.97492548       2.12946643       38       0.09983190       0.05585042       0.03010860
C        5.03880737      17.34095109      14.26481631       39      -0.14907357      -0.05190614       0.03881222
C        1.94975646       9.53842905       5.61041400       40      -0.07995816      -0.07207136       0.08098680
C        3.52839979      10.77772171      10.78244548       41      -0.00290635      -0.01705463      -0.00809425
C        1.57195062      10.26964435       6.72861422       42      -0.00821736       0.06559764      -0.09569418
C        3.90558992      10.04387887       9.66571044       43       0.09626487       0.04820266       0.04267487
C        0.58458627       9.77830169       7.59958197       44      -0.03404116      -0.04239150      -0.00865498
C        4.89294222      10.53752424       8.79325538       45       0.01300039       0.03486573       0.06121253
C        4.77254453       8.52844828       7.27261478       46      -0.06794596       0.00547977       0.03753445
C        0.70731260      11.78741563       9.12153080       47      -0.03370246      -0.06589939       0.01579838
C        0.44151401       7.85275329       6.13622301       48       0.00335720       0.03798205       0.11522377
C        5.03811368      12.46272318      10.25827576       49      -0.07588169      -0.08328193      -0.07038015
S        2.41934711      12.73183040       0.37390366       50      -0.08066942      -0.08251584      -0.22326668
S        3.05986030       7.58310324      16.02141295       51       0.05575943       0.08958369       0.19506998
S        0.46790896       1.35700733       2.68861257       52      -0.12182325      -0.02818966      -0.07438684
S        5.00964952      18.95997221      13.70674856       53       0.13482568       0.02201611       0.06611161
Br       5.08475449      11.80736003       3.72532552       54       0.05525753      -0.10799392      -0.03887130
Br       0.39104832       8.50522451      12.67073747       55      -0.04116654       0.12407897       0.05519927
Br       2.80234762       3.81720232       5.39811631       56       0.03642328       0.11499693      -0.04022566
Br       2.67629904      16.49709068      10.99783980       57      -0.06517000      -0.09031774       0.06307681
N        1.38817489       8.35025632       5.31766640       58       0.01881137       0.20694485       0.24372546
N        4.08816487      11.96420350      11.07764353       59       0.10754764      -0.11906964      -0.33133721
O        0.62523840       8.67957628       1.79628068       60       0.07884325       0.23970255      -0.05849433
O        4.85516325      11.63557099      14.59895103       61      -0.16548297      -0.22711530       0.05566668
O        3.13245957       8.21464710       0.65549600       62      -0.18989049      -0.12873617      -0.28112477
O        2.34572470      12.09713265      15.74027668       63       0.18933362       0.13915069       0.27000684
O        3.24563315       8.67368110       3.21221704       64      -0.04047437       0.19343597      -0.00974593
O        2.23328204      11.63869606      13.18238153       65       0.04749863      -0.17632447      -0.00207600
O        4.92653085       5.81148896       1.26816126       66       0.28819960      -0.29034758      -0.09655583
O        0.55323510      14.50257280      15.12656034       67      -0.30593142       0.28843719       0.10361351
O        0.30641815       6.24823592       3.83812597       68       0.04446828      -0.24773884      -0.02830365
O        5.17066722      14.06593664      12.55842785       69      -0.04841462       0.23882288      -0.00176492
O        2.80382816       5.90369375       2.67740895       70      -0.04425541      -0.32277983       0.13665649
O        2.67235201      14.41184349      13.71833186       71       0.12085164       0.30045095      -0.15281837
72
Lattice="4.74527147 0.0 0.0 0.7050899467269178 14.351971083816949 0.0 0.02913707010325787 5.962292211556168 16.395556053408868" Properties=species:S:1:pos:R:3:spacegroup_kinds:I:1:forces:R:3 spacegroup="P 1" unit_cell=conventional occupancy="_JSON {\"0\": {\"Cu\": 1}, \"1\": {\"Cu\": 1}, \"2\": {\"Cu\": 1}, \"3\": {\"Cu\": 1}, \"4\": {\"P\": 1}, \"5\": {\"P\": 1}, \"6\": {\"P\": 1}, \"7\": {\"P\": 1}, \"8\": {\"H\": 1}, \"9\": {\"H\": 1}, \"10\": {\"H\": 1}, \"11\": {\"H\": 1}, \"12\": {\"H\": 1}, \"13\": {\"H\": 1}, \"14\": {\"H\": 1}, \"15\": {\"H\": 1}, \"16\": {\"H\": 1}, \"17\": {\"H\": 1}, \"18\": {\"H\": 1}, \"19\": {\"H\": 1}, \"20\": {\"H\": 1}, \"21\": {\"H\": 1}, \"22\": {\"H\": 1}, \"23\": {\"H\": 1}, \"24\": {\"C\": 1}, \"25\": {\"C\": 1}, \"26\": {\"C\": 1}, \"27\": {\"C\": 1}, \"28\": {\"C\": 1}, \"29\": {\"C\": 1}, \"30\": {\"C\": 1}, \"31\": {\"C\": 1}, \"32\": {\"C\": 1}, \"33\": {\"C\": 1}, \"34\": {\"C\": 1}, \"35\": {\"C\": 1}, \"36\": {\"C\": 1}, \"37\": {\"C\": 1}, \"38\": {\"C\": 1}, \"39\": {\"C\": 1}, \"40\": {\"C\": 1}, \"41\": {\"C\": 1}, \"42\": {\"C\": 1}, \"43\": {\"C\": 1}, \"44\": {\"C\": 1}, \"45\": {\"C\": 1}, \"46\": {\"C\": 1}, \"47\": {\"C\": 1}, \"48\": {\"C\": 1}, \"49\": {\"C\": 1}, \"50\": {\"S\": 1}, \"51\": {\"S\": 1}, \"52\": {\"S\": 1}, \"53\": {\"S\": 1}, \"54\": {\"Br\": 1}, \"55\": {\"Br\": 1}, \"56\": {\"Br\": 1}, \"57\": {\"Br\": 1}, \"58\": {\"N\": 1}, \"59\": {\"N\": 1}, \"60\": {\"O\": 1}, \"61\": {\"O\": 1}, \"62\": {\"O\": 1}, \"63\": {\"O\": 1}, \"64\": {\"O\": 1}, \"65\": {\"O\": 1}, \"66\": {\"O\": 1}, \"67\": {\"O\": 1}, \"68\": {\"O\": 1}, \"69\": {\"O\": 1}, \"70\": {\"O\": 1}, \"71\": {\"O\": 1}}" energy=-461.00543212890625 free_energy=-461.00543212890625 stress="-0.0014415713958442211 0.001548259169794619 -0.0006627279217354953 0.001548259169794619 -0.00032711922540329397 0.00033906567841768265 -0.0006627279217354953 0.00033906567841768265 -0.005973109044134617" pbc="T T T"
Cu       1.94249709       7.30316090       3.69681213        0       0.04198801      -0.13006666      -0.02663259
Cu       3.53785730      13.01089180      12.69891560        1      -0.08659351       0.11924124       0.03969137
Cu       1.48696026       7.17157637       0.86867847        2      -0.00576949       0.05252276       0.04619269
Cu       3.98698549      13.14219340      15.52818354        3       0.03483060      -0.04283658      -0.06419425
P        3.85900057       8.95213731       1.83804004        4       0.11036526      -0.27144390       0.04885428
P        1.61756168      11.36186698      14.55452937        5      -0.03539673       0.28287560       0.04922812
P        4.30965180       5.57586860       2.67018543        6      -0.16895004       0.09154510      -0.01371091
P        1.16741360      14.74016190      13.72315688        7       0.11101519      -0.09063566       0.05157863
H        2.17705060      16.33421172      16.19216563        8      -0.01234772       0.07101342      -0.02395435
H        3.29996924       3.98167791       0.20360918        9       0.03280442      -0.03541800       0.05032017
H        3.65106876      14.03912691       2.05704642       10       0.01358056      -0.03393713       0.06197599
H        1.82380730       6.27539169      14.33576408       11       0.00291070       0.12180707      -0.03691241
H        4.61960236      15.31417284       4.74005603       12       0.02184554       0.06015110       0.03525310
H        0.85855824       5.00171404      11.65335627       13      -0.01099491      -0.01907031      -0.06182396
H        0.99174695       3.25984668       1.24586347       14       0.01377524      -0.04638714      -0.05799249
H        4.48527010      17.05474929      15.14943258       15       0.01159120       0.08161424       0.01053654
H        2.70621476       9.88961140       4.91405191       16       0.02346016       0.03845413       0.06108983
H        2.77132843      10.42585676      11.47896795       17      -0.02734426      -0.04229782      -0.07139453
H        2.05957001      11.22740462       6.90022236       18       0.02308266       0.02277792      -0.00915625
H        3.41540549       9.08801817       9.49422282       19       0.00547200       0.00579564      -0.00362992
H        4.00430757       8.06580754       7.88942396       20      -0.01346955       0.00377809       0.01369834
H        1.47158689      12.25124166       8.50263376       21       0.01299135      -0.00786768      -0.01284555
H        4.75781918       6.90373189       5.83202069       22      -0.01248830      -0.05049833       0.05105162
H        0.71970994      13.41472003      10.56201497       23      -0.01106588      -0.02339374      -0.07147904
C        3.52776588      10.69483655       1.48556571       24      -0.16229308       0.03381541      -0.07009254
C        1.95204183       9.62197848      14.90799444       25       0.12938976      -0.03754246       0.09142353
C        2.66225117      11.04748153       0.46721994       26      -0.09335120       0.02505881      -0.02787991
C        2.81503897       9.27063367      15.92850882       27       0.08627066      -0.11931938      -0.01929921
C        3.46361709      13.03236611       1.70435337       28       0.00129557      -0.06324488       0.01233059
C        2.01367032       7.28498551      14.68718956       29       0.02489436      -0.01042840       0.04516426
C        3.96711212      11.85792653       2.20368578       30       0.08976284      -0.08447300       0.19128680
C        1.50879665       8.46008275      14.19116610       31      -0.03776166       0.03542692      -0.17063582
C        4.43103021       3.79425621       2.94032145       32       0.07125768       0.02907461       0.06087735
C        1.04414788      16.52192111      13.45152075       33      -0.13908601       0.05952623       0.01616983
C        3.87195686       3.06081288       4.03992381       34       0.04442999       0.01318568       0.06526861
C        1.60083979      17.25738506      12.35332524       35       0.01685926      -0.06069620      -0.10372162
C        4.20839080       1.72691823       4.02977995       36       0.01199812       0.04697584      -0.00204766
C        1.26855850      18.59184338      12.36394609       37      -0.04805416      -0.08368925       0.03775257
C        0.44033544       2.97723453       2.12905450       38       0.08293746      -0.05741873       0.05201057
C        5.03590782      17.34231609      14.26515994       39      -0.06431620      -0.05135530      -0.05922282
C        1.94894757       9.53872016       5.61071793       40       0.00725761       0.01090257       0.01910031
C        3.52722461      10.77787544      10.78115585       41       0.00346565      -0.06029834      -0.02378708
C        1.57122953      10.27140965       6.72584204       42      -0.09707421       0.03448908       0.02804905
C        3.90641674      10.04438958       9.66545832       43       0.03571326      -0.02794665       0.02595001
C        0.58328397       9.77882221       7.59852331       44      -0.00406642      -0.01297612      -0.03147840
C        4.89263064      10.53892745       8.79306194       45       0.00452718      -0.05041657       0.00689360
C        4.77058674       8.52860997       7.27248092       46      -0.03283568       0.05479572       0.04862606
C        0.70625423      11.78730122       9.12012544       47       0.04635239       0.00423822      -0.03294573
C        0.44130125       7.85321238       6.13741004       48      -0.00710624       0.03269130       0.09479313
C        5.03731885      12.46238763      10.25577491       49      -0.04942694      -0.00036389      -0.01448214
S        2.41750481      12.73097691       0.37092742       50      -0.04518494      -0.00820541      -0.16256388
S        3.06146742       7.58522105      16.02377361       51      -0.00506943       0.03629237       0.10505155
S        0.46510683       1.35788526       2.68646201       52      -0.10664982      -0.04721689      -0.06601994
S        5.01109096      18.96138590      13.70750223       53       0.12025127       0.03142112       0.06409746
Br       5.08577218      11.80469314       3.72625925       54       0.04133467      -0.10433617      -0.05259577
Br       0.38851744       8.50724335      12.67304631       55      -0.07246778       0.12660092       0.00777993
Br       2.80323362       3.81970957       5.39705979       56       0.02381981       0.12212226      -0.01776684
Br       2.67347157      16.49425547      10.99878772       57      -0.04318447      -0.10083498       0.02775370
N        1.38741314       8.35273491       5.31979409       58       0.01199967       0.08562805       0.16602720
N        4.08865644      11.96203135      11.07475266       59       0.08544423      -0.01850165      -0.24426080
O        0.62747438       8.68148146       1.79549721       60      -0.00114423       0.23505092      -0.04694487
O        4.85267426      11.63394992      14.60059393       61      -0.09972455      -0.22088987       0.03850722
O        3.12962604       8.21231053       0.65329396       62      -0.12261966      -0.08226697      -0.20425335
O        2.34722560      12.09926342      15.74296337       63       0.11791623       0.08954785       0.17911085
O        3.24393190       8.67482951       3.21211900       64      -0.04134813       0.16761190       0.01677361
O        2.23343451      11.63623920      13.18253193       65       0.07832710      -0.12841423      -0.07747759
O        4.92876607       5.80922530       1.26675480       66       0.24456593      -0.27461982      -0.04311101
O        0.55067078      14.50529864      15.12784238       67      -0.27328038       0.27260128       0.04849708
O        0.30463314       6.24529486       3.83844528       68       0.07256481      -0.19938165      -0.00709060
O        5.16865701      14.06839593      12.55862006       69      -0.03554508       0.21734035      -0.00783464
O        2.80249030       5.90084836       2.67903737       70      -0.08941418      -0.30134216       0.11634050
O        2.67252939      14.41428881      13.71721040       71       0.14307633       0.28405839      -0.14586881
72
Lattice="4.74527147 0.0 0.0 0.7050899467269178 14.351971083816949 0.0 0.02913707010325787 5.962292211556168 16.395556053408868" Properties=species:S:1:pos:R:3:spacegroup_kinds:I:1:forces:R:3 spacegroup="P 1" unit_cell=conventional occupancy="_JSON {\"0\": {\"Cu\": 1}, \"1\": {\"Cu\": 1}, \"2\": {\"Cu\": 1}, \"3\": {\"Cu\": 1}, \"4\": {\"P\": 1}, \"5\": {\"P\": 1}, \"6\": {\"P\": 1}, \"7\": {\"P\": 1}, \"8\": {\"H\": 1}, \"9\": {\"H\": 1}, \"10\": {\"H\": 1}, \"11\": {\"H\": 1}, \"12\": {\"H\": 1}, \"13\": {\"H\": 1}, \"14\": {\"H\": 1}, \"15\": {\"H\": 1}, \"16\": {\"H\": 1}, \"17\": {\"H\": 1}, \"18\": {\"H\": 1}, \"19\": {\"H\": 1}, \"20\": {\"H\": 1}, \"21\": {\"H\": 1}, \"22\": {\"H\": 1}, \"23\": {\"H\": 1}, \"24\": {\"C\": 1}, \"25\": {\"C\": 1}, \"26\": {\"C\": 1}, \"27\": {\"C\": 1}, \"28\": {\"C\": 1}, \"29\": {\"C\": 1}, \"30\": {\"C\": 1}, \"31\": {\"C\": 1}, \"32\": {\"C\": 1}, \"33\": {\"C\": 1}, \"34\": {\"C\": 1}, \"35\": {\"C\": 1}, \"36\": {\"C\": 1}, \"37\": {\"C\": 1}, \"38\": {\"C\": 1}, \"39\": {\"C\": 1}, \"40\": {\"C\": 1}, \"41\": {\"C\": 1}, \"42\": {\"C\": 1}, \"43\": {\"C\": 1}, \"44\": {\"C\": 1}, \"45\": {\"C\": 1}, \"46\": {\"C\": 1}, \"47\": {\"C\": 1}, \"48\": {\"C\": 1}, \"49\": {\"C\": 1}, \"50\": {\"S\": 1}, \"51\": {\"S\": 1}, \"52\": {\"S\": 1}, \"53\": {\"S\": 1}, \"54\": {\"Br\": 1}, \"55\": {\"Br\": 1}, \"56\": {\"Br\": 1}, \"57\": {\"Br\": 1}, \"58\": {\"N\": 1}, \"59\": {\"N\": 1}, \"60\": {\"O\": 1}, \"61\": {\"O\": 1}, \"62\": {\"O\": 1}, \"63\": {\"O\": 1}, \"64\": {\"O\": 1}, \"65\": {\"O\": 1}, \"66\": {\"O\": 1}, \"67\": {\"O\": 1}, \"68\": {\"O\": 1}, \"69\": {\"O\": 1}, \"70\": {\"O\": 1}, \"71\": {\"O\": 1}}" energy=-461.0248718261719 free_energy=-461.0248718261719 stress="-0.0014310242841020226 0.0016028989339247346 -0.0005362865631468594 0.0016028989339247346 -0.00017291473341174424 0.000348253728589043 -0.0005362865631468594 0.000348253728589043 -0.00549609400331974" pbc="T T T"
Cu       1.94258898       7.30043856       3.69552269        0       0.03534373      -0.09674944       0.00448430
Cu       3.53730346      13.01332219      12.69887181        1      -0.08283095       0.09289605       0.02056792
Cu       1.48625786       7.17345016       0.86981925        2      -0.01297110       0.04275476       0.04390828
Cu       3.98727324      13.14015683      15.52632477        3       0.03557752      -0.02801621      -0.05071313
P        3.86073470       8.94938240       1.83861498        4      -0.05484665      -0.19003773       0.00812101
P        1.61636692      11.36449193      14.55558882        5       0.06689592       0.23761618       0.00800192
P        4.30762790       5.57577174       2.67036020        6      -0.10192361       0.08877885      -0.05080727
P        1.16903245      14.73978996      13.72312339        7       0.01524630      -0.04149222       0.09209360
H        2.17673478      16.33636743      16.19038027        8      -0.03260318       0.04039908      -0.04559416
H        3.29989590       3.98151985       0.20441469        9       0.02402516      -0.05071438       0.03783840
H        3.65045915      14.03902244       2.05710239       10       0.00469399      -0.05613045       0.04668221
H        1.82233720       6.27804755      14.33337378       11       0.00770866       0.10243091      -0.03349956
H        4.62001143      15.31627240       4.73988371       12       0.03132805       0.08301786       0.01238962
H        0.85620271       5.00116809      11.65048569       13      -0.01499250      -0.02137204      -0.05260395
H        0.99151165       3.25908773       1.24328322       14      -0.01480378      -0.05523894      -0.01169589
H        4.48424375      17.05725416      15.14803648       15      -0.01175755       0.06883290       0.04778762
H        2.70629329       9.89109948       4.91462877       16       0.01232919       0.03222671       0.06227251
H        2.77040743      10.42456218      11.47600698       17      -0.03165804      -0.03136056      -0.05922899
H        2.05854488      11.22885456       6.89953558       18       0.00925149       0.00959337      -0.00539581
H        3.41505991       9.08817013       9.49353706       19       0.01160957       0.01196262      -0.00908752
H        4.00353991       8.06621887       7.88898642       20      -0.03599840      -0.00067888       0.03581599
H        1.47105298      12.25178254       8.50084883       21       0.02380501      -0.00145341      -0.02500277
H        4.75788421       6.90353946       5.83270998       22       0.00850451      -0.01163027       0.06301711
H        0.71810872      13.41394828      10.55959479       23       0.01463151       0.03727428      -0.05107478
C        3.52596799      10.69540658       1.48381786       24      -0.13153474       0.00873005      -0.02895028
C        1.95247378       9.62261004      14.90893202       25       0.09264506      -0.02383798       0.04315894
C        2.65996854      11.04837445       0.46626387       26      -0.06029467       0.03563344      -0.00156076
C        2.81548119       9.26969521      15.92869790       27       0.08004732      -0.04365379      -0.00886068
C        3.46285208      13.03185386       1.70294935       28       0.01025933      -0.03339507       0.03168735
C        2.01325613       7.28652136      14.68615781       29       0.00748393       0.02996705       0.03751448
C        3.96774416      11.85823918       2.20442493       30       0.02536082      -0.10969040       0.10286903
C        1.50670436       8.46178114      14.18881018       31       0.04922959       0.03185774      -0.05377445
C        4.43242006       3.79579281       2.94054442       32       0.04933374      -0.00749668       0.07593642
C        1.04133063      16.52267074      13.45211646       33      -0.07429722       0.03522924      -0.05946530
C        3.87221461       3.06224276       4.04094482       34       0.04937774       0.07278055       0.04286191
C        1.60044796      17.25601809      12.35145432       35      -0.06886286       0.03943709      -0.02185667
C        4.20914041       1.72968870       4.02879195       36      -0.01921001      -0.04018039       0.05952650
C        1.26613830      18.59273116      12.36308212       37       0.01183432      -0.17571227       0.00242335
C        0.44049252       2.97752669       2.12898474       38       0.10125037      -0.03586569       0.00147203
C        5.03360068      17.34297211      14.26396272       39      -0.05082369       0.00994277      -0.06788364
C        1.94763074       9.54021417       5.61019787       40       0.01471248       0.04950731       0.05764297
C        3.52592707      10.77789123      10.77893475       41       0.05475685      -0.01036216      -0.02060813
C        1.56887029      10.27288494       6.72566785       42      -0.05286371       0.05190341      -0.01500480
C        3.90633731      10.04487869       9.66381483       43      -0.00416010      -0.05643390       0.05254255
C        0.58146445       9.78002603       7.59731232       44      -0.01392698      -0.00513010       0.00711188
C        4.89198129      10.53887114       8.79257269       45       0.04719880       0.01274754      -0.02280039
C        4.76847463       8.53045518       7.27315972       46       0.00266570       0.01987091      -0.01406036
C        0.70606161      11.78826507       9.11801367       47       0.00829312      -0.02568448      -0.00541159
C        0.44148281       7.85449763       6.13840130       48      -0.07037272      -0.00650713       0.11936535
C        5.03628593      12.46337940      10.25400938       49      -0.02221993      -0.05269364      -0.07680134
S        2.41536596      12.73165916       0.36795009       50      -0.00520059      -0.00555468      -0.10668954
S        3.05992180       7.58684902      16.02501405       51      -0.01190719      -0.02941498       0.07449485
S        0.46219212       1.35733918       2.68448544       52      -0.09789425      -0.02707511      -0.06134533
S        5.01293702      18.96419121      13.70767526       53       0.10277946      -0.00293797       0.06927913
Br       5.08650519      11.80233652       3.72597637       54       0.03756256      -0.09592204      -0.05556449
Br       0.38578586       8.50857663      12.67526203       55      -0.09744498       0.12952104      -0.03193837
Br       2.80149380       3.82170164       5.39884361       56       0.05059494       0.10353866      -0.04611711
Br       2.67104699      16.49194652      10.99882914       57      -0.03145809      -0.10719497       0.01001469
N        1.38647131       8.35460907       5.32182856       58       0.04077079       0.03905544       0.08793797
N        4.08985024      11.96247251      11.07220397       59      -0.01153851      -0.06704257      -0.18487422
O        0.62660848       8.68410345       1.79534127       60       0.07443593       0.19785316      -0.05024753
O        4.85187768      11.63236472      14.60039104       61      -0.11039608      -0.20120314       0.04013244
O        3.12684334       8.20993712       0.65203379       62      -0.05751313      -0.04442560      -0.14247909
O        2.34854269      12.10086939      15.74574516       63       0.07363717       0.06391908       0.12374280
O        3.24300195       8.67718336       3.21356673       64      -0.03023283       0.14393748      -0.01251969
O        2.23469177      11.63493195      13.18074260       65       0.04059468      -0.12099335       0.00692651
O        4.93140606       5.80648865       1.26590063       66       0.19899298      -0.26110166       0.01205520