96
Lattice="6.78821944 0.0 0.0 -0.07825516279742796 10.860275284650463 0.0 -0.18973338213536708 -0.006599542871537265 34.985158845222436" Properties=species:S:1:pos:R:3:spacegroup_kinds:I:1:forces:R:3 spacegroup="P 1" unit_cell=conventional occupancy="_JSON {\"0\": {\"Zn\": 1}, \"1\": {\"Zn\": 1}, \"2\": {\"Zn\": 1}, \"3\": {\"Zn\": 1}, \"4\": {\"H\": 1}, \"5\": {\"H\": 1}, \"6\": {\"H\": 1}, \"7\": {\"H\": 1}, \"8\": {\"H\": 1}, \"9\": {\"H\": 1}, \"10\": {\"H\": 1}, \"11\": {\"H\": 1}, \"12\": {\"H\": 1}, \"13\": {\"H\": 1}, \"14\": {\"H\": 1}, \"15\": {\"H\": 1}, \"16\": {\"H\": 1}, \"17\": {\"H\": 1}, \"18\": {\"H\": 1}, \"19\": {\"H\": 1}, \"20\": {\"H\": 1}, \"21\": {\"H\": 1}, \"22\": {\"H\": 1}, \"23\": {\"H\": 1}, \"24\": {\"H\": 1}, \"25\": {\"H\": 1}, \"26\": {\"H\": 1}, \"27\": {\"H\": 1}, \"28\": {\"H\": 1}, \"29\": {\"H\": 1}, \"30\": {\"C\": 1}, \"31\": {\"C\": 1}, \"32\": {\"C\": 1}, \"33\": {\"C\": 1}, \"34\": {\"C\": 1}, \"35\": {\"C\": 1}, \"36\": {\"C\": 1}, \"37\": {\"C\": 1}, \"38\": {\"C\": 1}, \"39\": {\"C\": 1}, \"40\": {\"C\": 1}, \"41\": {\"C\": 1}, \"42\": {\"C\": 1}, \"43\": {\"C\": 1}, \"44\": {\"C\": 1}, \"45\": {\"C\": 1}, \"46\": {\"C\": 1}, \"47\": {\"C\": 1}, \"48\": {\"C\": 1}, \"49\": {\"C\": 1}, \"50\": {\"C\": 1}, \"51\": {\"C\": 1}, \"52\": {\"C\": 1}, \"53\": {\"C\": 1}, \"54\": {\"C\": 1}, \"55\": {\"C\": 1}, \"56\": {\"C\": 1}, \"57\": {\"C\": 1}, \"58\": {\"C\": 1}, \"59\": {\"C\": 1}, \"60\": {\"C\": 1}, \"61\": {\"C\": 1}, \"62\": {\"C\": 1}, \"63\": {\"C\": 1}, \"64\": {\"C\": 1}, \"65\": {\"C\": 1}, \"66\": {\"C\": 1}, \"67\": {\"C\": 1}, \"68\": {\"C\": 1}, \"69\": {\"C\": 1}, \"70\": {\"C\": 1}, \"71\": {\"C\": 1}, \"72\": {\"C\": 1}, \"73\": {\"C\": 1}, \"74\": {\"C\": 1}, \"75\": {\"C\": 1}, \"76\": {\"C\": 1}, \"77\": {\"C\": 1}, \"78\": {\"O\": 1}, \"79\": {\"O\": 1}, \"80\": {\"O\": 1}, \"81\": {\"O\": 1}, \"82\": {\"O\": 1}, \"83\": {\"O\": 1}, \"84\": {\"O\": 1}, \"85\": {\"O\": 1}, \"86\": {\"O\": 1}, \"87\": {\"O\": 1}, \"88\": {\"O\": 1}, \"89\": {\"O\": 1}, \"90\": {\"O\": 1}, \"91\": {\"O\": 1}, \"92\": {\"O\": 1}, \"93\": {\"O\": 1}, \"94\": {\"F\": 1}, \"95\": {\"F\": 1}}" energy=-659.0322875976562 free_energy=-659.0322875976562 stress="5.224801498115994e-05 4.6181503421394154e-05 -6.51863729217439e-06 4.6181503421394154e-05 6.370592745952308e-05 -7.72046689689887e-07 -6.51863729217439e-06 -7.72046689689887e-07 0.0009057404822669923" pbc="T T T"
Zn       4.72207524       0.03971157      17.50250959        0       0.03387134       0.03685172       0.00246108
Zn       1.95217447      10.85620227      17.48601682        1      -0.03489812       0.03666424       0.01698048
Zn       1.06337049      10.82056626      34.97606703        2      -0.04302393       0.02089805      -0.01477158
Zn       3.94619804      10.81911936       0.00595135        3       0.02499579       0.04148181      -0.03444891
H        5.02254509      10.81123232      30.63510446        4      -0.01504199       0.00275617      -0.00321778
H        4.81533835      10.81774244      28.16302242        5       0.01850496       0.00067430       0.00326112
H        0.51776187      10.80290060      28.53605762        6      -0.02461447      -0.00217244       0.03664220
H        0.74781862      10.79823013      31.01669270        7       0.02359030       0.00213136      -0.03414320
H        5.25557501      10.82598348      23.90693011        8       0.02822012       0.00007587      -0.02605922
H        0.96339280      10.81389870      24.33893520        9      -0.05996463      -0.00000092       0.02375572
H        0.72109312      10.82797161      21.87217849       10      -0.00731920      -0.00076013      -0.00918506
H        4.98975812      10.84435645      21.43135511       11      -0.03189334      -0.00338413       0.04394823
H        1.37164616      10.81855076      26.42718828       12      -0.03529060      -0.00160340      -0.05967343
H        4.41987042      10.80937969      26.03942810       13       0.03579143      -0.00511928       0.06051455
H        5.15982622      10.80878292       4.37162313       14      -0.03763378       0.00297292       0.01096873
H        4.92718003      10.81412084       6.84012130       15       0.01255073      -0.00362653      -0.00906200
H        0.63311459      10.81463716       6.42327640       16      -0.02630354      -0.00123128      -0.03485258
H        0.88974269      10.80966935       3.94526062       17       0.01334313      -0.00079029       0.03286120
H        5.32459333      10.82295383      11.09941231       18       0.01765615       0.00284883       0.02383300
H        1.03633133      10.80768164      10.62779609       19      -0.07030053      -0.00488188      -0.03131610
H        0.77135814      10.82219296      13.09287388       20      -0.00745481      -0.00111683      -0.00146871
H        5.03579582      10.84067488      13.57269266       21      -0.03040928      -0.00202539      -0.04232016
H        1.46608706      10.82419906       8.54172637       22      -0.04599254       0.00273063       0.05394888
H        4.50981934      10.80198950       8.95910659       23       0.02939725      -0.00370329      -0.05501843
H        6.03325295       6.67209633      17.53577759       24      -0.00573191      -0.00430802       0.00111332
H        1.73067151       6.74662481      17.46568633       25      -0.00327569      -0.02142660      -0.00524584
H        5.96777871       4.16524961      17.53120955       26      -0.01291576       0.01414138       0.00348326
H        6.50534723       6.57588174      34.97905517       27      -0.01504739       0.00600503       0.00048370
H        4.01794365       6.70156343      34.95946034       28      -0.00136901      -0.02556389      -0.00236533
H       -0.18855956       4.06974427      34.97900339       29      -0.03596130      -0.00821717       0.00272768
C        3.87125813       8.35883382      17.49897081       30       0.10951743      -0.06910503       0.02837734
C        2.75811999      10.85061584      20.01285929       31      -0.02385370      -0.02130543      -0.02125800
C        3.84447166       2.54966293      17.49769400       32      -0.10703941      -0.06856143      -0.01571929
C        2.78982208      10.84554602      14.97112306       33      -0.09072606       0.00234616      -0.07204127
C        1.86042218       8.28856054      34.97338182       34       0.00600347      -0.05775380       0.01932070
C        2.96157103      10.80251605      32.46600458       35       0.08022540       0.00684038      -0.05026889
C        1.95892114       2.47962743      34.97529868       36       0.00737151      -0.04374236       0.00238859
C        3.11956447      10.80735725       2.51803413       37       0.01639485       0.03701029       0.11481720
C        2.89680928      10.80351555      30.97793282       38      -0.02058574       0.01356493       0.03329749
C        4.03915193      10.81000841      30.16389091       39       0.01720051      -0.01100934      -0.05230153
C        3.91529924      10.81288703      28.77773878       40       0.01559647       0.00088098      -0.04045384
C        2.64372561      10.81001065      28.15883463       41       0.05597740       0.00025132      -0.03012997
C        1.50721336      10.80448759      28.99628074       42      -0.04261178       0.00842652      -0.06306814
C        1.62840451      10.80261243      30.37437452       43      -0.03070378      -0.01002519      -0.01815370
C        2.42336121      10.81368523      26.72252175       44       0.00787663      -0.00370765      -0.04847202
C        3.36690194      10.81221672      25.74843431       45      -0.01189935       0.01339007       0.06984630
C        4.25956769      10.82680415      23.46180598       46       0.00446096      -0.00331157       0.08759099
C        3.13371625      10.81945244      24.31430346       47      -0.03724478      -0.00136725       0.02757763
C        1.85378267      10.82061998      23.71321487       48       0.02474952      -0.00719524      -0.01826083
C        1.71049419      10.82773394      22.32896223       49       0.01477912       0.00789923       0.05897132
C        2.84197191      10.83729936      21.49937817       50      -0.03946589       0.00401812      -0.01999131
C        4.11788545      10.83603030      22.08602546       51       0.06950001       0.01163756      -0.00237191
C        3.03683466      10.80910728       4.00554035       52       0.04353520      -0.01240601      -0.01112603
C        4.17066208      10.81028266       4.83241040       53       0.03642315      -0.00736392      -0.01265621
C        4.03295261      10.81171187       6.21641769       54       0.06425371       0.00693746       0.06579249
C        2.75709134      10.81294117       6.82249435       55      -0.07499851       0.00847772       0.02197608
C        1.62698427      10.81298768       5.97313262       56       0.02710964      -0.00455685       0.10278656
C        1.76331126      10.81002026       4.59688369       57      -0.06346871       0.00975033      -0.00522369
C        2.52019395      10.81651810       8.25638559       58       0.02643722      -0.01576227       0.03473890
C        3.45380151      10.80888776       9.23941243       59      -0.01513876       0.01460167      -0.02045071
C        4.32385548      10.82358818      11.53427467       60      -0.00042172      -0.00835852      -0.00351800
C        3.20529002      10.81489935      10.67242190       61       0.02262910      -0.00280136      -0.07455635
C        1.92060397      10.81384194      11.26156682       62       0.01076008       0.01076177       0.00894531
C        1.76443951      10.82243765      12.64376897       63       0.02095099      -0.00024411      -0.00534041
C        2.88789042      10.83268396      13.48509219       64      -0.02023745      -0.00115285      -0.00763126
C        4.16955938      10.83243350      12.91060705       65       0.05877320       0.00807648      -0.06360435
C        3.83307518       4.04176927      17.49792084       66       0.00159654       0.00341249       0.00811882
C        3.88867710       6.86379724      17.50017246       67       0.03753286       0.03815541      -0.00430949
C        2.65043256       4.80333613      17.47965202       68       0.01161371       0.01792289      -0.00900842
C        5.08566236       6.13627893      17.52021005       69       0.02298552       0.00614610      -0.00760485
C        2.66482427       6.18844196      17.48011271       70      -0.00231335      -0.01172298       0.00723975
C        5.04835368       4.74737850      17.51843275       71       0.10572359      -0.02470323      -0.00061782
C        1.94826385       3.97131716      34.97256649       72      -0.06309146       0.05256945      -0.00873163
C        1.85851688       6.79336954      34.96982597       73      -0.00875923       0.02729502      -0.00185106
C        3.12097362       4.74882818      34.96546125       74       0.00791901      -0.07241674      -0.00440096
C        0.67045406       6.05150422      34.97525293       75      -0.03109851      -0.02621062      -0.00390288
C        3.09035785       6.13184419      34.96363269       76       0.00640086       0.06171393       0.00793370
C        0.72240419       4.66218313      34.97586174       77       0.02313285       0.00135608       0.00199558
O        5.00471587       8.97599076      17.50640810       78      -0.02723658      -0.03377944      -0.01053558
O        2.73298398       8.91898076      17.49447508       79      -0.05527423       0.08539678      -0.01247828
O        1.60579652      10.83103894      19.43185496       80       0.04226354       0.00011285       0.00819388
O        3.94915653       0.01529829      19.39650233       81      -0.00504445      -0.00344374       0.04333068
O        2.72887703       1.94108826      17.49016077       82       0.09035136       0.02725938       0.00510414
O        4.99916718       1.97233638      17.50381070       83       0.01340377       0.02363254       0.00236921
O        3.97231495       0.01175004      15.59817747       84       0.09612270      -0.00857163       0.01641018
O        1.63118654      10.82770170      15.53817620       85      -0.00263086      -0.00877416       0.00989294
O        0.72158665       8.89314066      34.96940926       86      -0.01456657       0.01768771      -0.00498990
O        2.99361548       8.86253339      34.98392256       87      -0.01850532       0.04749805      -0.00475243
O        4.11066034      10.79691254      33.05329226       88       0.01028475      -0.00798544       0.02610680
O        1.84662716      10.80690266      33.07473966       89      -0.08603477      -0.01730253      -0.00830047
O        3.27140022       1.89504620      -0.00193926       90      -0.02284938      -0.04020387       0.00645845
O        0.81144704       1.88340998      34.97000755       91       0.05859339       0.03407101       0.00155031
O        2.00938725      10.81393343       1.89943409       92      -0.04102199      -0.02695825      -0.00713584
O        4.27525123      10.80345918       1.94524871       93       0.01052660      -0.01770353      -0.03368096
F        1.43153305       4.20653385      17.45695737       94      -0.00211725      -0.03062672       0.00255928
F        4.34764585       4.16546983      34.95844467       95      -0.01351735      -0.00926845       0.00137255
96
Lattice="6.78821944 0.0 0.0 -0.07825516279742796 10.860275284650463 0.0 -0.18973338213536708 -0.006599542871537265 34.985158845222436" Properties=species:S:1:pos:R:3:spacegroup_kinds:I:1:forces:R:3 spacegroup="P 1" unit_cell=conventional occupancy="_JSON {\"0\": {\"Zn\": 1}, \"1\": {\"Zn\": 1}, \"2\": {\"Zn\": 1}, \"3\": {\"Zn\": 1}, \"4\": {\"H\": 1}, \"5\": {\"H\": 1}, \"6\": {\"H\": 1}, \"7\": {\"H\": 1}, \"8\": {\"H\": 1}, \"9\": {\"H\": 1}, \"10\": {\"H\": 1}, \"11\": {\"H\": 1}, \"12\": {\"H\": 1}, \"13\": {\"H\": 1}, \"14\": {\"H\": 1}, \"15\": {\"H\": 1}, \"16\": {\"H\": 1}, \"17\": {\"H\": 1}, \"18\": {\"H\": 1}, \"19\": {\"H\": 1}, \"20\": {\"H\": 1}, \"21\": {\"H\": 1}, \"22\": {\"H\": 1}, \"23\": {\"H\": 1}, \"24\": {\"H\": 1}, \"25\": {\"H\": 1}, \"26\": {\"H\": 1}, \"27\": {\"H\": 1}, \"28\": {\"H\": 1}, \"29\": {\"H\": 1}, \"30\": {\"C\": 1}, \"31\": {\"C\": 1}, \"32\": {\"C\": 1}, \"33\": {\"C\": 1}, \"34\": {\"C\": 1}, \"35\": {\"C\": 1}, \"36\": {\"C\": 1}, \"37\": {\"C\": 1}, \"38\": {\"C\": 1}, \"39\": {\"C\": 1}, \"40\": {\"C\": 1}, \"41\": {\"C\": 1}, \"42\": {\"C\": 1}, \"43\": {\"C\": 1}, \"44\": {\"C\": 1}, \"45\": {\"C\": 1}, \"46\": {\"C\": 1}, \"47\": {\"C\": 1}, \"48\": {\"C\": 1}, \"49\": {\"C\": 1}, \"50\": {\"C\": 1}, \"51\": {\"C\": 1}, \"52\": {\"C\": 1}, \"53\": {\"C\": 1}, \"54\": {\"C\": 1}, \"55\": {\"C\": 1}, \"56\": {\"C\": 1}, \"57\": {\"C\": 1}, \"58\": {\"C\": 1}, \"59\": {\"C\": 1}, \"60\": {\"C\": 1}, \"61\": {\"C\": 1}, \"62\": {\"C\": 1}, \"63\": {\"C\": 1}, \"64\": {\"C\": 1}, \"65\": {\"C\": 1}, \"66\": {\"C\": 1}, \"67\": {\"C\": 1}, \"68\": {\"C\": 1}, \"69\": {\"C\": 1}, \"70\": {\"C\": 1}, \"71\": {\"C\": 1}, \"72\": {\"C\": 1}, \"73\": {\"C\": 1}, \"74\": {\"C\": 1}, \"75\": {\"C\": 1}, \"76\": {\"C\": 1}, \"77\": {\"C\": 1}, \"78\": {\"O\": 1}, \"79\": {\"O\": 1}, \"80\": {\"O\": 1}, \"81\": {\"O\": 1}, \"82\": {\"O\": 1}, \"83\": {\"O\": 1}, \"84\": {\"O\": 1}, \"85\": {\"O\": 1}, \"86\": {\"O\": 1}, \"87\": {\"O\": 1}, \"88\": {\"O\": 1}, \"89\": {\"O\": 1}, \"90\": {\"O\": 1}, \"91\": {\"O\": 1}, \"92\": {\"O\": 1}, \"93\": {\"O\": 1}, \"94\": {\"F\": 1}, \"95\": {\"F\": 1}}" energy=-659.0330810546875 free_energy=-659.0330810546875 stress="0.0004207789897918701 5.983722530800151e-07 -3.3024989534169436e-05 5.983722530800151e-07 0.000152307387907058 1.559114821247931e-06 -3.3024989534169436e-05 1.559114821247931e-06 0.0009135521249845624" pbc="T T T"
Zn       4.72186203       0.04032579      17.50305733        0       0.02694310       0.03997395      -0.01485114
Zn       1.94973113      10.85613278      17.48654025        1      -0.02229556       0.03314198      -0.01668894
Zn       1.06201255      10.82264611      34.97416714        2      -0.03618611      -0.00991284       0.00036624
Zn       3.94624741      10.81901610       0.00424553        3       0.01131901       0.04437523      -0.03609443
H        5.02152337      10.81224040      30.63449598        4      -0.01896606       0.00466816      -0.00947785
H        4.81496565      10.81850107      28.16218013        5       0.02894913      -0.00012738      -0.01008816
H        0.51626566      10.80327191      28.53541598        6      -0.03325325      -0.00166081       0.02752863
H        0.74701964      10.80009681      31.01496077        7       0.01482636       0.00215663      -0.03026344
H        5.25460098      10.82669073      23.90501527        8       0.06162739      -0.00163279      -0.00174754
H        0.96176824      10.81440948      24.33874728        9      -0.03904511       0.00085735       0.00012764
H        0.72033868      10.82842903      21.87141062       10      -0.00531648       0.00029586      -0.00197748
H        4.98874858      10.84433760      21.43119942       11      -0.02043526       0.00040040       0.03563157
H        1.36959757      10.81855618      26.42429003       12       0.01689164      -0.00232066      -0.03919299
H        4.42019750      10.81043345      26.03894297       13       0.00506169      -0.00553934       0.05176720
H        5.15813058      10.80880100       4.36981740       14      -0.01821651       0.00421487       0.01210429
H        4.92692310      10.81438497       6.83904169       15       0.02861916      -0.00588724       0.01127417
H        0.63092537      10.81572335       6.42225978       16      -0.00821795      -0.00320617      -0.03061345
H        0.88867722      10.80991846       3.94559252       17       0.01083869       0.00028748       0.03367845
H        5.32397160      10.82388614      11.09816156       18       0.01835616       0.00245884       0.02627916
H        1.03418557      10.80853371      10.62536153       19      -0.01700118      -0.00475316       0.01071039
H        0.77098126      10.82249739      13.09221260       20      -0.01802941       0.00173667      -0.00249115
H        5.03322021      10.84169002      13.57010809       21       0.02788004      -0.00177491      -0.00012187
H        1.46379413      10.82503744       8.54151414       22      -0.01882322      -0.00141476       0.04511371
H        4.50964664      10.80323916       8.95737242       23       0.01509121      -0.00319412      -0.04993799
H        6.03288650       6.67246925      17.53518105       24      -0.02310504      -0.00988002      -0.00082444
H        1.73008092       6.74716028      17.46444343       25      -0.01365308      -0.01274554      -0.00419848
H        5.96666374       4.16587353      17.52997930       26       0.01154046      -0.00229090       0.00510801
H        6.50437003       6.57642743      34.97822723       27      -0.05679703       0.02803978       0.00167357
H        4.01718496       6.70276984      34.95774106       28       0.00793731      -0.01499262      -0.00022451
H       -0.19033039       4.07072355      34.97804578       29      -0.02406973      -0.00280130       0.00214129
C        3.87085585       8.35885300      17.49764575       30      -0.00290685       0.00415677       0.03453894
C        2.75784384      10.85283574      20.01054410       31      -0.09256419      -0.04029729       0.07231325
C        3.84175783       2.55066596      17.49734059       32       0.08665489      -0.11730182      -0.02946035
C        2.78728317      10.84753423      14.96895441       33       0.08310822      -0.03301053       0.01963043
C        1.85912241       8.28899054      34.97176501       34      -0.00749388       0.01469630       0.03029403
C        2.96113384      10.80317105      32.46383074       35      -0.03603449      -0.00087422       0.03293258
C        1.95691199       2.48103512      34.97315997       36      -0.00606047      -0.12323231       0.02056366
C        3.11855800      10.80765564       2.51770465       37       0.00204238       0.05040812       0.07504851
C        2.89481899      10.80402377      30.97642653       38       0.05156057       0.02653638       0.00536619
C        4.03845194      10.81144018      30.16229036       39      -0.02971616      -0.02293406      -0.04374945
C        3.91443176      10.81325505      28.77534203       40       0.04647839       0.00682225       0.01559806
C        2.64439307      10.81013174      28.15676434       41      -0.07433976       0.00000181       0.00631966
C        1.50528967      10.80493825      28.99554346       42       0.04718605       0.01222438      -0.15255314
C        1.62699103      10.80410892      30.37214036       43      -0.04186881      -0.01832943       0.02871335
C        2.42268366      10.81381409      26.72077628       44      -0.05290434      -0.00412101      -0.01876166
C        3.36623916      10.81276886      25.74809742       45       0.02362990       0.01200313       0.03870720
C        4.25925698      10.82740609      23.46153412       46      -0.08572231      -0.00340984       0.07327748
C        3.13152969      10.81980977      24.31454836       47       0.04328704       0.00614171      -0.02283345
C        1.85269104      10.82166823      23.71211945       48       0.00205503      -0.01532244       0.04649288
C        1.70984561      10.82856560      22.32854006       49      -0.01967224       0.01382697       0.01067823
C        2.83965668      10.83901452      21.49782245       50       0.05726889       0.00361773       0.01180702
C        4.11727185      10.83711927      22.08569696       51       0.00028300       0.00948366      -0.01382670
C        3.03620059      10.80991213       4.00459839       52       0.02870128      -0.01878631       0.03902221
C        4.17003758      10.81074857       4.83171868       53       0.00767674      -0.01029973       0.02842572
C        4.03253609      10.81148814       6.21701910       54       0.03840003       0.01307328      -0.01164370
C        2.75606708      10.81317999       6.82244959       55      -0.05981052       0.00328466       0.02138681
C        1.62599130      10.81331477       5.97375558       56       0.00742474      -0.00091661       0.05814694
C        1.76212491      10.81057218       4.59727533       57      -0.03261322       0.00913492      -0.01767030
C        2.51845165      10.81625398       8.25525857       58       0.04552276      -0.00486570       0.09176755
C        3.45344114      10.80975054       9.23848969       59      -0.04201092       0.00662859      -0.07423717
C        4.32340354      10.82415189      11.53357155       60      -0.01453529      -0.01170429      -0.07710619
C        3.20448896      10.81502832      10.67004232       61       0.03420995       0.00581547       0.00075350
C        1.92007526      10.81451501      11.26045539       62      -0.03982504       0.00770603      -0.05029919
C        1.76360826      10.82333969      12.64274360       63       0.01849909      -0.00569045      -0.02313047
C        2.88640608      10.83311727      13.48360399       64       0.03086770       0.01434199      -0.01517038
C        4.16936546      10.83294856      12.90846814       65      -0.04135427       0.00924035      -0.03570177
C        3.83246290       4.04213084      17.49729566       66      -0.03352520       0.01942760       0.00909220
C        3.88752558       6.86480494      17.49833686       67       0.05897778       0.01604632       0.00309941
C        2.64900499       4.80402513      17.47896434       68       0.02464825       0.01167278      -0.00824787
C        5.08447627       6.13702533      17.51912172       69       0.04250813      -0.01713184      -0.01057097
C        2.66401194       6.18936771      17.47937661       70      -0.01781486      -0.04083404      -0.00078363
C        5.04786321       4.74724713      17.51744298       71       0.07141045       0.03067718       0.00052451
C        1.94618499       3.97184570      34.97121473       72      -0.02088657       0.07066350      -0.00674764
C        1.85633402       6.79515477      34.96870714       73       0.04372273      -0.01498242      -0.00075194
C        3.11985922       4.74913925      34.96541217       74       0.00224440      -0.00841890      -0.01530447
C        0.66843901       6.05316750      34.97470399       75       0.02391429      -0.08767526      -0.00736126
C        3.08964878       6.13389723      34.96303810       76      -0.04626206      -0.02216792       0.00680938
C        0.72129804       4.66289005      34.97496661       77      -0.02001658       0.04066733       0.00191706
O        5.00337542       8.97660519      17.50594087       78      -0.01817128      -0.03781402      -0.01025056
O        2.73050046       8.92000317      17.49422914       79       0.04767337       0.03010157      -0.01413917
O        1.60516391      10.83267259      19.43030009       80       0.02826443       0.00770133       0.00037564
O        3.94814295       0.01601551      19.39665700       81       0.06218820       0.00323294      -0.00645012
O        2.72849468       1.94194760      17.48813859       82       0.01493117      -0.00438826       0.01158369
O        4.99926161       1.97155094      17.50330591       83      -0.09804875       0.09527022       0.00986553
O        3.97234319       0.01110494      15.59792567       84      -0.03276052       0.00059258      -0.06692866
O        1.63050748      10.82803047      15.53702515       85      -0.04388636       0.00638431       0.02291238
O        0.71983278       8.89417495      34.96944246       86       0.01698482       0.01026970      -0.00885145
O        2.99256309       8.86388737      34.98206683       87      -0.04731602       0.02176770      -0.00812435
O        4.10995890      10.79717946      33.05153651       88      -0.00469941      -0.00389105       0.01361503
O        1.84403894      10.80673713      33.07430030       89       0.04049760      -0.01464415      -0.08519910
O        3.26900941       1.89485447      -0.00362995       90      -0.03788634      -0.01157645      -0.00066577
O        0.80924230       1.88282441      34.96962329       91       0.08518428       0.09347697      -0.00523029
O        2.00731281      10.81482721       1.90069974       92      -0.02964532      -0.03183164      -0.01982879
O        4.27363568      10.80463172       1.94247386       93       0.00137132      -0.02249867      -0.00326934
F        1.42943689       4.20685052      17.45613832       94       0.02827591      -0.01489303       0.00450387
F        4.34659192       4.16533274      34.95757382       95      -0.02977312      -0.00172494       0.00405627
96
Lattice="6.78821944 0.0 0.0 -0.07825516279742796 10.860275284650463 0.0 -0.18973338213536708 -0.006599542871537265 34.985158845222436" Properties=species:S:1:pos:R:3:spacegroup_kinds:I:1:forces:R:3 spacegroup="P 1" unit_cell=conventional occupancy="_JSON {\"0\": {\"Zn\": 1}, \"1\": {\"Zn\": 1}, \"2\": {\"Zn\": 1}, \"3\": {\"Zn\": 1}, \"4\": {\"H\": 1}, \"5\": {\"H\": 1}, \"6\": {\"H\": 1}, \"7\": {\"H\": 1}, \"8\": {\"H\": 1}, \"9\": {\"H\": 1}, \"10\": {\"H\": 1}, \"11\": {\"H\": 1}, \"12\": {\"H\": 1}, \"13\": {\"H\": 1}, \"14\": {\"H\": 1}, \"15\": {\"H\": 1}, \"16\": {\"H\": 1}, \"17\": {\"H\": 1}, \"18\": {\"H\": 1}, \"19\": {\"H\": 1}, \"20\": {\"H\": 1}, \"21\": {\"H\": 1}, \"22\": {\"H\": 1}, \"23\": {\"H\": 1}, \"24\": {\"H\": 1}, \"25\": {\"H\": 1}, \"26\": {\"H\": 1}, \"27\": {\"H\": 1}, \"28\": {\"H\": 1}, \"29\": {\"H\": 1}, \"30\": {\"C\": 1}, \"31\": {\"C\": 1}, \"32\": {\"C\": 1}, \"33\": {\"C\": 1}, \"34\": {\"C\": 1}, \"35\": {\"C\": 1}, \"36\": {\"C\": 1}, \"37\": {\"C\": 1}, \"38\": {\"C\": 1}, \"39\": {\"C\": 1}, \"40\": {\"C\": 1}, \"41\": {\"C\": 1}, \"42\": {\"C\": 1}, \"43\": {\"C\": 1}, \"44\": {\"C\": 1}, \"45\": {\"C\": 1}, \"46\": {\"C\": 1}, \"47\": {\"C\": 1}, \"48\": {\"C\": 1}, \"49\": {\"C\": 1}, \"50\": {\"C\": 1}, \"51\": {\"C\": 1}, \"52\": {\"C\": 1}, \"53\": {\"C\": 1}, \"54\": {\"C\": 1}, \"55\": {\"C\": 1}, \"56\": {\"C\": 1}, \"57\": {\"C\": 1}, \"58\": {\"C\": 1}, \"59\": {\"C\": 1}, \"60\": {\"C\": 1}, \"61\": {\"C\": 1}, \"62\": {\"C\": 1}, \"63\": {\"C\": 1}, \"64\": {\"C\": 1}, \"65\": {\"C\": 1}, \"66\": {\"C\": 1}, \"67\": {\"C\": 1}, \"68\": {\"C\": 1}, \"69\": {\"C\": 1}, \"70\": {\"C\": 1}, \"71\": {\"C\": 1}, \"72\": {\"C\": 1}, \"73\": {\"C\": 1}, \"74\": {\"C\": 1}, \"75\": {\"C\": 1}, \"76\": {\"C\": 1}, \"77\": {\"C\": 1}, \"78\": {\"O\": 1}, \"79\": {\"O\": 1}, \"80\": {\"O\": 1}, \"81\": {\"O\": 1}, \"82\": {\"O\": 1}, \"83\": {\"O\": 1}, \"84\": {\"O\": 1}, \"85\": {\"O\": 1}, \"86\": {\"O\": 1}, \"87\": {\"O\": 1}, \"88\": {\"O\": 1}, \"89\": {\"O\": 1}, \"90\": {\"O\": 1}, \"91\": {\"O\": 1}, \"92\": {\"O\": 1}, \"93\": {\"O\": 1}, \"94\": {\"F\": 1}, \"95\": {\"F\": 1}}" energy=-659.0346069335938 free_energy=-659.0346069335938 stress="0.00035122688859701157 5.003533806302585e-05 -8.253705163951963e-05 5.003533806302585e-05 9.601267811376601e-05 6.420085355784977e-06 -8.253705163951963e-05 6.420085355784977e-06 0.0009324250277131796" pbc="T T T"
Zn       4.72317344       0.04172758      17.50199797        0       0.01136285       0.03122868      -0.01147588
Zn       1.94926249      10.85781346      17.48544468        1      -0.02296758       0.03057750      -0.01779477
Zn       1.06186984      10.82337491      34.97379515        2      -0.04437238      -0.00332774       0.00000788
Zn       3.94607037      10.82087596       0.00244534        3       0.00926743       0.03256172      -0.02106195
H        5.02082788      10.81292476      30.63383690        4      -0.02830356       0.00113164      -0.02075516
H        4.81418906      10.81846626      28.16040816        5      -0.00328198       0.00075532       0.01260240