70
Lattice="6.9378338 0.0 0.0 -1.4796529393134992 7.4382261099918 0.0 -1.9349758982548968 -0.9163156891591654 12.77298372803582" Properties=species:S:1:pos:R:3:spacegroup_kinds:I:1:forces:R:3 spacegroup="P 1" unit_cell=conventional occupancy="_JSON {\"0\": {\"Cu\": 1}, \"1\": {\"Cu\": 1}, \"2\": {\"Cu\": 1}, \"3\": {\"Cu\": 1}, \"4\": {\"H\": 1}, \"5\": {\"H\": 1}, \"6\": {\"H\": 1}, \"7\": {\"H\": 1}, \"8\": {\"H\": 1}, \"9\": {\"H\": 1}, \"10\": {\"H\": 1}, \"11\": {\"H\": 1}, \"12\": {\"H\": 1}, \"13\": {\"H\": 1}, \"14\": {\"H\": 1}, \"15\": {\"H\": 1}, \"16\": {\"H\": 1}, \"17\": {\"H\": 1}, \"18\": {\"H\": 1}, \"19\": {\"H\": 1}, \"20\": {\"H\": 1}, \"21\": {\"H\": 1}, \"22\": {\"H\": 1}, \"23\": {\"H\": 1}, \"24\": {\"H\": 1}, \"25\": {\"H\": 1}, \"26\": {\"H\": 1}, \"27\": {\"H\": 1}, \"28\": {\"H\": 1}, \"29\": {\"H\": 1}, \"30\": {\"H\": 1}, \"31\": {\"H\": 1}, \"32\": {\"H\": 1}, \"33\": {\"H\": 1}, \"34\": {\"H\": 1}, \"35\": {\"H\": 1}, \"36\": {\"H\": 1}, \"37\": {\"H\": 1}, \"38\": {\"C\": 1}, \"39\": {\"C\": 1}, \"40\": {\"C\": 1}, \"41\": {\"C\": 1}, \"42\": {\"C\": 1}, \"43\": {\"C\": 1}, \"44\": {\"C\": 1}, \"45\": {\"C\": 1}, \"46\": {\"C\": 1}, \"47\": {\"C\": 1}, \"48\": {\"C\": 1}, \"49\": {\"C\": 1}, \"50\": {\"C\": 1}, \"51\": {\"C\": 1}, \"52\": {\"C\": 1}, \"53\": {\"C\": 1}, \"54\": {\"C\": 1}, \"55\": {\"C\": 1}, \"56\": {\"N\": 1}, \"57\": {\"N\": 1}, \"58\": {\"N\": 1}, \"59\": {\"N\": 1}, \"60\": {\"N\": 1}, \"61\": {\"N\": 1}, \"62\": {\"N\": 1}, \"63\": {\"N\": 1}, \"64\": {\"Cl\": 1}, \"65\": {\"Cl\": 1}, \"66\": {\"Cl\": 1}, \"67\": {\"Cl\": 1}, \"68\": {\"Cl\": 1}, \"69\": {\"Cl\": 1}}" energy=-388.81011962890625 free_energy=-388.81011962890625 stress="0.010419712401926517 -0.0008659280138090253 0.0007242011488415301 -0.0008659280138090253 0.005394835025072098 0.0020378935150802135 0.0007242011488415301 0.0020378935150802135 0.008542262949049473" pbc="T T T"
Cu       4.27878199       3.78759438       7.65763635        0       0.36774257      -0.33944735       0.23405796
Cu      -0.76171509       2.72345161       5.08419070        1      -0.10068639       0.15084003      -0.01614572
Cu       4.24542553       2.82804217      11.31264306        2      -0.13260473      -0.24741678      -0.44506139
Cu      -0.70788931       3.69243426       1.45823305        3       0.11314851       0.21363968       0.44947234
H        4.48043761      -0.12203969      10.94415134        4      -0.29432604       0.16590956      -0.23229674
H       -0.92180123       6.62556133       1.80577276        5      -0.34058917       0.14909407      -0.10190623
H        4.37808014       0.54298021       9.25759404        6      -0.38869458      -0.18130848       0.48001924
H       -0.88413552       5.92555828       3.46682269        7      -0.40819380       0.09804906       0.72400403
H        0.02250381       5.99595846       8.25732285        8      -0.85744786      -0.86978412      -0.24764958
H        3.51161909       0.56863600       4.48680380        9       0.00177020      -0.57215440      -0.16786614
H        2.70241920      -0.22127920       7.74238955       10      -0.59783518      -0.04310536       0.41294512
H        0.85403568       6.74337656       4.99769585       11      -0.05288605      -0.26526070       0.31204742
H       -1.68004861       6.53037689       9.92914603       12       0.63692749       0.93265843      -0.10527867
H        5.21004621       0.00000062       2.86597633       13      -0.53818697      -0.45804030      -0.22538121
H       -0.28640607       0.77472281      10.56578571       14      -0.14156777       0.58740240      -0.09502727
H        3.80138498       5.72487872       2.24562795       15       0.14848241      -0.06444872      -0.20498937
H        1.31292318       2.41898943       9.87741129       16      -0.29844061       0.19040503      -0.05938196
H        2.22197716       4.12375145       2.90231184       17      -0.35530359      -0.11310379       0.30635023
H        2.59176452       2.01559297       8.65246232       18      -0.26571897      -0.00354867      -0.14261335
H        0.93758668       4.54837128       4.14540621       19      -0.33916336      -0.34352338       0.74636489
H        1.45685898       1.57069657      12.07173741       20      -1.48854303       1.67568970       0.55704576
H        2.10315899       4.94691618       0.69308681       21      -0.30877775       0.05212219       0.08915870
H        2.74122306       0.46778761      12.57270189       22      -0.26719499      -0.02134187      -0.18260521
H        0.77611174       6.04183769       0.24615203       23      -1.33420050       0.69364321      -1.48557401
H        0.11875118       5.14111109      10.60009483       24      -0.59114116      -0.66449475      -0.42629522
H        3.41449837       1.40702500       2.22467235       25       0.33247921      -0.19714063       0.07800841
H        1.38888853       5.70242435      11.73239408       26      -1.00631142       0.50413859      -0.95312655
H        2.15315759       0.84454216       1.05225639       27       0.96288431      -0.51240373       1.02772713
H        1.77297336       4.41745532       9.17434358       28       0.03057626      -0.21750066       0.13639465
H        1.78618274       2.09170105       3.60438270       29      -0.20070268       0.24665660      -0.30455452
H        3.08475017       5.09708789      10.16819018       30       0.05001383      -0.15036830       0.13062049
H        0.42873397       1.44137937       2.57660002       31       0.19301724       0.04150267      -0.10126871
H        3.92937205       6.32097298       8.00262103       32      -0.36276945      -0.45777509       0.02076071
H       -0.37758821       0.18788898       4.73957870       33       0.05042181      -0.06995757       0.13188840
H        1.91385485       4.28260730       6.80999832       34      -1.25042498      -0.70617425      -0.21498245
H        1.62177095       2.22616982       5.96236201       35       1.36620188       0.84854579       0.15467060
H        3.19766505       5.23939228       5.86224793       36      -0.55384123      -0.26364568       0.92942154
H        0.35520983       1.29437819       6.90634103       37       0.34778816       0.15574503      -0.73260790
C        3.77929539       0.19306986      10.14160772       38       1.51119649      -0.80379546      -0.48956862
C       -0.30831085       6.31505942       2.64600617       39       1.64247274       0.62364280      -0.66406798
C        2.02801263      -0.57449893       8.55939243       40       2.05138206       1.05474031       0.94782627
C        1.48374545       7.08750226       4.18782020       41      -0.04336311       0.51431429      -1.17345905
C        0.39819172       0.02310197      10.19058950       42      -0.35534817      -1.44232881       0.47340354
C        3.14122048       6.55006175       2.52575246       43      -0.55715877      -1.08174980       0.52204555
C        1.95645127       1.64419370       9.46824776       44       1.11535645      -0.22436768       0.67268848
C        1.51412438       4.87365991       3.30453961       45       1.53918362       0.75895351      -1.70168567
C        2.06514269       0.79197717      11.76708718       46       1.58079410      -2.58753014      -1.40224469
C        1.39997379       5.73862918       1.01195724       47       2.61407208      -0.33730039       2.68843055
C        0.66392264       6.01250555      10.88588776       48       2.43128657      -0.44906741       1.34397721
C        2.88347810       0.51260571       1.88764000       49      -2.38022470       0.58691591      -1.20580626
C        2.44954070       5.27639963       9.28830478       50      -0.88277119       0.03120732       1.19481075
C        1.08422948       1.25731811       3.43929765       51       1.23078728      -0.96796995       0.25946450
C        3.21814700       5.46146325       8.06315979       52       0.13864964       0.66152215      -1.34460008
C        0.34111166       1.01389490       4.70966575       53       0.23639739       0.72309715       0.71332407
C        2.79308286       4.86411953       6.84784225       54       2.02344370       1.45460558      -0.34023124
C        0.74020152       1.65625861       5.91979701       55      -2.08126736      -1.69719803      -0.18932219
N        2.93003116       1.26049183      10.60436904       56      -1.12479174       0.51942647       0.19455045
N        0.60056223       5.25156730       2.19807074       57      -0.59169871      -0.46889234      -1.00219870
N        1.55240464       6.40710982       9.72406166       58      -1.53928447       1.32354426      -1.08697331
N        2.01848974       0.07460373       3.04940165       59      -1.16827154       0.47893441       0.76564866
N        1.16516553       0.49856117       9.05443661       60       0.02262345      -0.37190628      -0.21527237
N        2.35111185       6.02764735       3.67395457       61       0.18111995       0.67680830       0.89023930
N        1.25942666      -0.38397840      11.31567583       62       0.15446413       1.05364573       0.10807621
N        2.25224973       6.89421766       1.42707884       63       0.14468157       0.07185078      -0.26208770
Cl      -1.40713279       3.48596863       9.57905335       64      -0.06558866      -0.11730366       0.23877865
Cl       4.94312863       3.06303130       3.21670369       65      -0.00601101       0.14593726      -0.39077711
Cl       4.28821626       1.76873716       6.67552113       66      -0.19924711      -0.26006323       0.32896480
Cl      -0.75883114       4.75967137       6.07725250       67       0.23513001       0.19202004      -0.35052016
Cl       3.02375295       4.15005713      12.69444721       68       0.00552508      -0.22683869      -0.10488112
Cl       0.48953514       2.34481657       0.08186391       69       0.01055835       0.22104776       0.10512140
70
Lattice="6.9378338 0.0 0.0 -1.4796529393134992 7.4382261099918 0.0 -1.9349758982548968 -0.9163156891591654 12.77298372803582" Properties=species:S:1:pos:R:3:spacegroup_kinds:I:1:forces:R:3 spacegroup="P 1" unit_cell=conventional occupancy="_JSON {\"0\": {\"Cu\": 1}, \"1\": {\"Cu\": 1}, \"2\": {\"Cu\": 1}, \"3\": {\"Cu\": 1}, \"4\": {\"H\": 1}, \"5\": {\"H\": 1}, \"6\": {\"H\": 1}, \"7\": {\"H\": 1}, \"8\": {\"H\": 1}, \"9\": {\"H\": 1}, \"10\": {\"H\": 1}, \"11\": {\"H\": 1}, \"12\": {\"H\": 1}, \"13\": {\"H\": 1}, \"14\": {\"H\": 1}, \"15\": {\"H\": 1}, \"16\": {\"H\": 1}, \"17\": {\"H\": 1}, \"18\": {\"H\": 1}, \"19\": {\"H\": 1}, \"20\": {\"H\": 1}, \"21\": {\"H\": 1}, \"22\": {\"H\": 1}, \"23\": {\"H\": 1}, \"24\": {\"H\": 1}, \"25\": {\"H\": 1}, \"26\": {\"H\": 1}, \"27\": {\"H\": 1}, \"28\": {\"H\": 1}, \"29\": {\"H\": 1}, \"30\": {\"H\": 1}, \"31\": {\"H\": 1}, \"32\": {\"H\": 1}, \"33\": {\"H\": 1}, \"34\": {\"H\": 1}, \"35\": {\"H\": 1}, \"36\": {\"H\": 1}, \"37\": {\"H\": 1}, \"38\": {\"C\": 1}, \"39\": {\"C\": 1}, \"40\": {\"C\": 1}, \"41\": {\"C\": 1}, \"42\": {\"C\": 1}, \"43\": {\"C\": 1}, \"44\": {\"C\": 1}, \"45\": {\"C\": 1}, \"46\": {\"C\": 1}, \"47\": {\"C\": 1}, \"48\": {\"C\": 1}, \"49\": {\"C\": 1}, \"50\": {\"C\": 1}, \"51\": {\"C\": 1}, \"52\": {\"C\": 1}, \"53\": {\"C\": 1}, \"54\": {\"C\": 1}, \"55\": {\"C\": 1}, \"56\": {\"N\": 1}, \"57\": {\"N\": 1}, \"58\": {\"N\": 1}, \"59\": {\"N\": 1}, \"60\": {\"N\": 1}, \"61\": {\"N\": 1}, \"62\": {\"N\": 1}, \"63\": {\"N\": 1}, \"64\": {\"Cl\": 1}, \"65\": {\"Cl\": 1}, \"66\": {\"Cl\": 1}, \"67\": {\"Cl\": 1}, \"68\": {\"Cl\": 1}, \"69\": {\"Cl\": 1}}" energy=-387.5797119140625 free_energy=-387.5797119140625 stress="0.007933576591312885 -0.006682035978883505 -0.0024512584786862135 -0.006682035978883505 0.0021845814771950245 -0.0008656767895445228 -0.0024512584786862135 -0.0008656767895445228 0.006586461793631315" pbc="T T T"
Cu       4.25774273       3.76162911       7.67470418        0       0.29963908      -0.13350932       0.28714040
Cu      -0.77627743       2.74138477       5.05860064        1       0.30330679      -0.26345795       0.11582345
Cu       4.24036699       2.82612998      11.31041965        2      -0.11772487      -0.39434931      -0.56157577
Cu      -0.70813190       3.70977298       1.45051101        3       0.09811957       0.22532243       0.43308949
H        4.45808877      -0.09483564      10.92684406        4       0.39961979      -0.31198883       0.42173558
H       -0.94664738       6.64920156       1.80945481        5       0.04820648      -0.28457540       0.60942388
H        4.35120199       0.57017529       9.24097339        6      -0.53410029      -0.47873843       0.92852402
H       -0.91023641       5.90437369       3.49525264        7      -0.20456854       0.11763304       0.50083345
H        0.04579408       6.02382943       8.27618650        8      -2.30907297      -3.12887907      -0.93976033
H        3.49667807       0.59525149       4.51229338        9       0.34342235      -0.45429066      -0.28919595
H        2.67976161      -0.24653197       7.73892226       10      -0.10331985       0.27987745      -0.28984761
H        0.88376841       6.71658066       5.02189382       11       0.47534865       0.21376535      -0.42980185
H       -1.66633367       6.53252746       9.95705669       12       0.81178433       1.32149267      -0.21444792
H        5.18150934      -0.00265928       2.84055138       13      -0.02638069       0.21382426       0.18315738
H       -0.27168151       0.80425820      10.59133149       14       0.29059595       0.11194550      -0.44434789
H        3.81946420       5.69646403       2.22291094       15      -0.43521550       0.89028251       0.22835305
H        1.33916234       2.39728951       9.89609929       16      -1.55734992       1.78612304       0.60934597
H        2.23183565       4.11475107       2.89748739       17      -0.99314678       0.30969819       0.66560280
H        2.61512153       2.01045703       8.62448691       18      -0.83288288      -0.08316842       0.57931221
H        0.90843234       4.52628972       4.14259706       19      -0.65127176      -0.43295127       1.30541599
H        1.47587341       1.58848489      12.05261563       20      -1.09251618       0.97689688       0.64100409
H        2.11019740       4.96471366       0.71730852       21      -0.05383208      -0.73647273      -0.30637863
H        2.73151949       0.44398311      12.57329187       22       0.39304256      -0.28160638       0.62707067
H        0.74728910       6.05169803       0.23151410       23      -0.86979711       0.54172468      -1.13537645
H        0.13191696       5.16642905      10.62599196       24      -1.45005822      -1.96061921      -1.00065589
H        3.39069132       1.39361912       2.21704463       25       0.79063606       0.29167122       0.33529878
H        1.38578847       5.68212127      11.70343930       26      -0.69947529       0.52339542      -0.67834330
H        2.12463769       0.85471514       1.05632708       27       1.67580616      -0.89789474       1.35550022
H        1.79086150       4.40385994       9.20141778       28      -0.78403789      -1.02538145       0.12963940
H        1.76367880       2.11984544       3.62741134       29      -0.72695625      -0.67034829      -0.72091329
H        3.08464420       5.10723927      10.14466288       30       0.43176091      -0.31507272       0.76648891
H        0.40377852       1.45225590       2.59033659       31      -0.12619247      -0.02559838      -0.43304417
H        3.93168731       6.32937819       8.00731113       32      -0.99978352      -1.17325163      -0.01120593
H       -0.36834332       0.21179062       4.73065900       33      -0.55358845      -0.81960142       0.31980261
H        1.88893368       4.25271003       6.83747429       34      -1.10290551      -0.63306475      -0.27285650
H        1.63362357       2.20186583       5.93864853       35       1.45301008       0.95857823       0.36919552
H        3.20183852       5.22556015       5.88341512       36      -0.81704450      -0.48982328       1.12655020
H        0.34109891       1.27009415       6.89386543       37       0.36129677       0.18174262      -0.31419346
C        3.76741663       0.16614474      10.13957303       38       1.18777204       1.02822328      -1.47339892
C       -0.32838260       6.28679606       2.66527180       39       0.97209221       1.97534740      -1.34441876
C        2.02358490      -0.58889335       8.53267098       40       2.69741058       3.77098799       2.64074707
C        1.50975509       7.11076933       4.18410374       41      -1.62337637      -0.59899575      -0.13906294
C        0.42521553       0.05053644      10.17250284       42      -1.64618778      -1.74835324       1.77371669
C        3.14093078       6.56000422       2.52245585       43      -0.07661945      -3.69147253       0.22672945
C        1.93137746       1.67339819       9.45891169       44       3.12796021      -2.27583003      -0.34804237
C        1.48726469       4.85674229       3.32937735       45       2.67981243       1.14457405      -3.49987650
C        2.07724312       0.76429252      11.79317851       46       0.28012332      -1.12952602      -2.40484333
C        1.37777676       5.70961220       0.99159766       47       2.36561155       1.05776596       3.48819304
C        0.67436238       6.00260708      10.87061716       48       2.68705750       1.42741621       1.82459188
C        2.90526232       0.49127461       1.89789649       49      -3.99071240       0.80339640      -2.02025366
C        2.42740775       5.24836634       9.30502343       50       0.20051423       1.51501143      -0.04275841
C        1.06658827       1.22869184       3.41715939       51       2.00774646       0.63986546       1.89150405
C        3.18869233       5.44601492       8.04954476       52       0.70521784       1.33884132      -0.09726118
C        0.36870220       0.98525509       4.73448675       53       0.27727738       1.50880384      -0.02680391
C        2.76792493       4.84238325       6.87170736       54       2.00624943       1.35023010      -1.36088967
C        0.75243266       1.63683249       5.93558373       55      -2.25700331      -1.63816535      -0.93330395
N        2.90744585       1.23863564      10.62754886       56      -0.18007296       0.64030159      -0.49879658
N        0.57920473       5.26678327       2.19712589       57      -0.33509773      -1.56013691      -0.78692132
N        1.56478326       6.41344202       9.70810742       58      -2.41109657       0.14922616      -0.83774924
N        1.98888943       0.09542842       3.06163641       59       0.13491568      -0.92491800       0.28867343
N        1.14068011       0.51901099       9.04479356       60       0.92801815      -0.68869865      -0.83033830
N        2.33529513       6.02236275       3.64850576       61       0.52376986       1.17635512       1.76984382
N        1.27640459      -0.37103633      11.31625730       62      -0.01332778       0.25530282      -0.20702541
N        2.27419197       6.87169284       1.45181845       63      -1.20100582       0.59680486      -1.47374916
Cl      -1.39355327       3.48427215       9.55648126       64      -0.09587723      -0.11555383       0.34397814
Cl       4.94929661       3.06482264       3.19720252       65      -0.05094657       0.12126750      -0.40414593
Cl       4.25971911       1.79067091       6.70310492       66      -0.22140637      -0.44786984       0.26328647
Cl      -0.73710770       4.73189865       6.05231125       67       0.25293660       0.33578026      -0.30717468
Cl       3.03433653       4.13567684      12.66867707       68      -0.08600115      -0.14967473      -0.04600999
Cl       0.48951115       2.35842454       0.07966295       69       0.01987291       0.18436341       0.07519786
70
Lattice="6.9378338 0.0 0.0 -1.4796529393134992 7.4382261099918 0.0 -1.9349758982548968 -0.9163156891591654 12.77298372803582" Properties=species:S:1:pos:R:3:spacegroup_kinds:I:1:forces:R:3 spacegroup="P 1" unit_cell=conventional occupancy="_JSON {\"0\": {\"Cu\": 1}, \"1\": {\"Cu\": 1}, \"2\": {\"Cu\": 1}, \"3\": {\"Cu\": 1}, \"4\": {\"H\": 1}, \"5\": {\"H\": 1}, \"6\": {\"H\": 1}, \"7\": {\"H\": 1}, \"8\": {\"H\": 1}, \"9\": {\"H\": 1}, \"10\": {\"H\": 1}, \"11\": {\"H\": 1}, \"12\": {\"H\": 1}, \"13\": {\"H\": 1}, \"14\": {\"H\": 1}, \"15\": {\"H\": 1}, \"16\": {\"H\": 1}, \"17\": {\"H\": 1}, \"18\": {\"H\": 1}, \"19\": {\"H\": 1}, \"20\": {\"H\": 1}, \"21\": {\"H\": 1}, \"22\": {\"H\": 1}, \"23\": {\"H\": 1}, \"24\": {\"H\": 1}, \"25\": {\"H\": 1}, \"26\": {\"H\": 1}, \"27\": {\"H\": 1}, \"28\": {\"H\": 1}, \"29\": {\"H\": 1}, \"30\": {\"H\": 1}, \"31\": {\"H\": 1}, \"32\": {\"H\": 1}, \"33\": {\"H\": 1}, \"34\": {\"H\": 1}, \"35\": {\"H\": 1}, \"36\": {\"H\": 1}, \"37\": {\"H\": 1}, \"38\": {\"C\": 1}, \"39\": {\"C\": 1}, \"40\": {\"C\": 1}, \"41\": {\"C\": 1}, \"42\": {\"C\": 1}, \"43\": {\"C\": 1}, \"44\": {\"C\": 1}, \"45\": {\"C\": 1}, \"46\": {\"C\": 1}, \"47\": {\"C\": 1}, \"48\": {\"C\": 1}, \"49\": {\"C\": 1}, \"50\": {\"C\": 1}, \"51\": {\"C\": 1}, \"52\": {\"C\": 1}, \"53\": {\"C\": 1}, \"54\": {\"C\": 1}, \"55\": {\"C\": 1}, \"56\": {\"N\": 1}, \"57\": {\"N\": 1}, \"58\": {\"N\": 1}, \"59\": {\"N\": 1}, \"60\": {\"N\": 1}, \"61\": {\"N\": 1}, \"62\": {\"N\": 1}, \"63\": {\"N\": 1}, \"64\": {\"Cl\": 1}, \"65\": {\"Cl\": 1}, \"66\": {\"Cl\": 1}, \"67\": {\"Cl\": 1}, \"68\": {\"Cl\": 1}, \"69\": {\"Cl\": 1}}" energy=-386.8248291015625 free_energy=-386.8248291015625 stress="0.005451750475913286 -0.007337789051234722 0.0005343830562196672 -0.007337789051234722 2.8189837394165806e-05 -0.0009148529497906566 0.0005343830562196672 -0.0009148529497906566 0.006463143974542618" pbc="T T T"
Cu       4.27938350       3.79064294       7.69517329        0       0.27827492      -0.24586895       0.10892578
Cu      -0.79908602       2.75768059       5.07020289        1       0.41936609      -0.47902584       0.02388388
Cu       4.24682998       2.80381332      11.29036702        2      -0.11939680      -0.38527456      -0.53100425
Cu      -0.73001377       3.68490403       1.46342609        3       0.21675855       0.21503703       0.28598034
H        4.43167450      -0.12127721      10.92247295        4       0.71051043      -0.36691451       0.49114233
H       -0.97255646       6.62129233       1.79081862        5       0.30977923      -0.38491669       1.32685876
H        4.34003390       0.59265500       9.26250363        6      -0.42907864      -0.64520520       0.53309500
H       -0.91554247       5.91767061       3.51289192        7      -0.62541348      -0.12908512       1.23063588
H        0.07015427       6.03239398       8.26970442        8      -3.20280480      -4.51439238      -1.44148874
H        3.51976336       0.61574915       4.48896553        9      -0.43755132      -1.66226327      -0.51505148
H        2.70333627      -0.27030344       7.73993890       10       0.16429642       0.37444615      -0.41767740
H        0.90012221       6.70410984       5.02766145       11       0.07159223       0.23417273      -0.46029639
H       -1.64427553       6.51445503       9.93241629       12       0.79249835       1.89792514       0.22926588
H        5.18394649       0.01146681       2.82108006       13      -0.32132170      -0.19877082       0.08896317
H       -0.27862739       0.81281310      10.58935751       14      -0.21788865       0.66865575      -0.20610434
H        3.80373089       5.71794969       2.25168806       15      -0.17982627       0.41531426      -0.18187748
H        1.32376905       2.36809011       9.87340389       16      -1.91759896       2.34013462       0.91086644
H        2.24456327       4.13714432       2.89740362       17      -0.53390199      -0.23392323       0.28856507
H        2.61021595       1.99741982       8.62260590       18      -0.25197139       0.26175523       0.16192964
H        0.93443643       4.53874546       4.14598661       19      -0.31957325      -0.46396077       0.82182997
H        1.49751419       1.57645234      12.03765997       20      -1.50800526       1.71877742       0.94044101
H        2.12751679       4.94708052       0.74163941       21      -0.58977175       0.08315282      -0.12016028
H        2.73771562       0.47094163      12.59634824       22       0.61869597      -0.55152881       0.96391630
H        0.73226597       6.07256480       0.24908501       23      -0.12660092       0.18082494      -0.53640956
H        0.15738958       5.18004336      10.61749601       24      -2.46653652      -3.35544753      -1.35193133
H        3.39200790       1.40706988       2.24668356       25       0.34260142      -0.66319829      -0.05082108
H        1.39534454       5.65419167      11.69753937       26      -0.55936539       0.49108449      -0.24781165
H        2.13328456       0.87276172       1.05711419       27       1.66898084      -1.10930753       1.54913712
H        1.81644573       4.37446135       9.19299390       28      -0.73342323      -0.81684905       0.06458265
H        1.74514730       2.14148886       3.64035526       29      -0.84643090      -1.10415936      -0.90661216
H        3.09646720       5.12945526      10.16514759       30      -0.41971123      -0.28097725      -0.54104370
H        0.38136412       1.47587934       2.56978161       31       0.59977138      -0.39915806       0.16197690
H        3.95441113       6.34688734       8.00727264       32      -1.05824888      -1.26201606      -0.06891120
H       -0.35579485       0.23942762       4.74378475       33      -1.68024969      -1.98967338       0.23392937
H        1.89579234       4.24862902       6.84028285       34      -0.38737521      -0.16960628      -0.27279419
H        1.63490872       2.17349541       5.91568910       35       1.41892838       1.01223886       0.40399411
H        3.21050238       5.20114267       5.89884988       36      -0.34492210      -0.05616758       0.01200040
H        0.36141358       1.25170648       6.89494722       37       0.22899136       0.22736923      -0.31969804
C        3.76348768       0.14369385      10.12490750       38       0.74955583       1.26395965      -0.35537541
C       -0.35769442       6.28133466       2.69210717       39       1.79437399       2.09464979      -3.51609302
C        2.05161693      -0.61669462       8.52197284       40       2.57729959       5.24476814       3.96958232
C        1.48117715       7.08749512       4.16394984       41       0.06404702       1.35764396       0.60247123
C        0.41097217       0.07588744      10.20034314       42      -0.27998400      -3.20751095      -0.05205329
C        3.12518281       6.56472803       2.50395841       43       0.62860924      -2.69650626       1.69601607
C        1.94707752       1.68892521       9.44516643       44       2.63573790      -3.92868996       0.08010028
C        1.51067229       4.85935433       3.30609222       45       1.17013645       0.91476715      -2.03484821
C        2.10201167       0.76932883      11.81022937       46      -0.42851990      -1.76751089      -3.08985400
C        1.39953136       5.73728933       1.01895437       47       1.25385594       0.11633620       1.97533405
C        0.68380386       5.97510803      10.88993973       48       2.43363428       3.71163225       1.79077041
C        2.89256338       0.46931512       1.91777438       49      -3.23090410       3.36277962      -2.51618481
C        2.40634144       5.25980733       9.27649500       50       1.86277258       0.79026341       1.34888494
C        1.08416809       1.20008594       3.39115293       51       0.93918127       2.39401698       2.07414865
C        3.21445059       5.45466072       8.02805585       52       0.22849110       1.63436484       0.55273187
C        0.35567404       0.98231703       4.71786836       53       1.55203593       2.59921646       0.07345842
C        2.79348040       4.85502706       6.85268145       54       0.80722642       0.35990536      -0.41839048
C        0.72648384       1.65237243       5.93261530       55      -1.97018647      -1.82296705      -1.33825493
N        2.90705970       1.21262654      10.65688419       56       0.47635418       1.17094076      -1.54281950
N        0.55662303       5.24173493       2.19336966       57       0.34503490      -0.64795554      -0.25592375
N        1.55424004       6.38634411       9.72920441       58      -2.12109733       0.75257659      -2.03390384
N        2.01728754       0.12197979       3.03379432       59      -1.31694996      -2.86099887       1.37469351
N        1.15784590       0.49918084       9.03385425       60       0.70770174      -0.06373093      -0.35224047
N        2.33315621       6.01463495       3.66590292       61       0.60560232       1.43073726       0.67255807
N        1.25456474      -0.34762778      11.32067928       62       1.08073592      -0.75887460       0.46443254
N        2.25434096       6.88474323       1.47070923       63      -0.88934994      -0.13005212      -1.95349431
Cl      -1.39143963       3.50145285       9.53201542       64      -0.01047651      -0.16139978       0.49646255
Cl       4.95372424       3.05378382       3.19276953       65      -0.15044340       0.10319518      -0.36528194
Cl       4.25394421       1.81886739       6.70578307       66      -0.23665985      -0.44185838       0.26517084
Cl      -0.76393102       4.72711700       6.03842058       67       0.27487746       0.49857491      -0.25446752
Cl       3.05635786       4.13677638      12.69550835       68      -0.07581381      -0.20300706      -0.14901277
Cl       0.50481524       2.35371289       0.05448944       69      -0.04095416       0.23753546       0.12915695
70