68
Lattice="9.77949532 0.0 0.0 -0.2744704183991526 11.069278110804191 0.0 4.428293077459977 0.05235156097304955 12.546325226398253" Properties=species:S:1:pos:R:3:spacegroup_kinds:I:1:forces:R:3 spacegroup="P 1" unit_cell=conventional occupancy="_JSON {\"0\": {\"Zn\": 1}, \"1\": {\"Zn\": 1}, \"2\": {\"H\": 1}, \"3\": {\"H\": 1}, \"4\": {\"H\": 1}, \"5\": {\"H\": 1}, \"6\": {\"H\": 1}, \"7\": {\"H\": 1}, \"8\": {\"H\": 1}, \"9\": {\"H\": 1}, \"10\": {\"H\": 1}, \"11\": {\"H\": 1}, \"12\": {\"H\": 1}, \"13\": {\"H\": 1}, \"14\": {\"H\": 1}, \"15\": {\"H\": 1}, \"16\": {\"H\": 1}, \"17\": {\"H\": 1}, \"18\": {\"C\": 1}, \"19\": {\"C\": 1}, \"20\": {\"C\": 1}, \"21\": {\"C\": 1}, \"22\": {\"C\": 1}, \"23\": {\"C\": 1}, \"24\": {\"C\": 1}, \"25\": {\"C\": 1}, \"26\": {\"C\": 1}, \"27\": {\"C\": 1}, \"28\": {\"C\": 1}, \"29\": {\"C\": 1}, \"30\": {\"C\": 1}, \"31\": {\"C\": 1}, \"32\": {\"C\": 1}, \"33\": {\"C\": 1}, \"34\": {\"C\": 1}, \"35\": {\"C\": 1}, \"36\": {\"C\": 1}, \"37\": {\"C\": 1}, \"38\": {\"C\": 1}, \"39\": {\"C\": 1}, \"40\": {\"C\": 1}, \"41\": {\"C\": 1}, \"42\": {\"C\": 1}, \"43\": {\"C\": 1}, \"44\": {\"C\": 1}, \"45\": {\"C\": 1}, \"46\": {\"C\": 1}, \"47\": {\"C\": 1}, \"48\": {\"C\": 1}, \"49\": {\"C\": 1}, \"50\": {\"C\": 1}, \"51\": {\"C\": 1}, \"52\": {\"C\": 1}, \"53\": {\"C\": 1}, \"54\": {\"N\": 1}, \"55\": {\"N\": 1}, \"56\": {\"N\": 1}, \"57\": {\"N\": 1}, \"58\": {\"N\": 1}, \"59\": {\"N\": 1}, \"60\": {\"O\": 1}, \"61\": {\"O\": 1}, \"62\": {\"O\": 1}, \"63\": {\"O\": 1}, \"64\": {\"O\": 1}, \"65\": {\"O\": 1}, \"66\": {\"O\": 1}, \"67\": {\"O\": 1}}" energy=-490.51446533203125 free_energy=-490.51446533203125 stress="0.0003026639751624316 -0.0002763986703939736 0.0001721517473924905 -0.0002763986703939736 -0.00043528599780984223 -2.2004145648679696e-05 0.0001721517473924905 -2.2004145648679696e-05 -0.0005013454356230795" pbc="T T T"
Zn       5.50319045       5.57941779       6.24534814        0      -0.02278914       0.09312765      -0.01004161
Zn       8.35190730       5.65633525       6.12585299        1      -0.04167601       0.07589947       0.01679210
H        5.15633631       1.34785724       8.46711611        2       0.01036660      -0.01072980      -0.05279111
H        4.61321195       9.96260610       8.47757958        3       0.05331862       0.03220373      -0.00100312
H        3.65778402      10.01562691       6.95600732        4      -0.10047404      -0.05664682      -0.10462642
H       10.57998455       4.40759086       4.45748649        5       0.01161278       0.07055996       0.14493632
H        3.30258899       4.36120718       4.53448485        6       0.07851356      -0.05590861      -0.02090563
H        3.17110164       6.60024596       9.23133631        7       0.01571251       0.01191896       0.04141486
H        3.35795715       8.05084250       8.20185214        8      -0.01110122      -0.02319497       0.03450405
H       10.43896451       6.81356960       9.08753548        9      -0.05001529       0.04538898       0.05059923
H       11.83532711       4.28713068       9.96356231       10      -0.00658947       0.05767434      -0.02769290
H       10.61793436       8.22232820       7.99397877       11      -0.05251636       0.06040439      -0.00412680
H       13.16968708       4.98537845      11.93463514       12      -0.04194181      -0.01701995       0.00321916
H        4.66000350       5.02979665       2.20937501       13      -0.04130271      -0.00454448       0.00256495
H        3.01297290       4.02258062       1.41030402       14       0.04323319      -0.03612167      -0.02829432
H        0.86516441       3.70910493       0.28322565       15      -0.02651413      -0.00062929      -0.05020852
H        5.08797678       4.28747747      10.36732056       16       0.10177197      -0.04682010       0.02819226
H        9.63130271       4.20457891       8.87170099       17      -0.08410656       0.07650642      -0.06992690
C        6.86086556       8.20659921       6.28806643       18      -0.19832858       0.32935303       0.06620912
C        8.56486835       4.43545866      12.12863896       19      -0.12930155       0.02647407      -0.08444998
C        8.48289616       4.47170238      10.69779452       20       0.26516062       0.02078097       0.01333559
C        5.41779878       4.62913669       0.21156090       21      -0.02948637       0.05233835      -0.12513363
C       11.02864205       4.68709630      11.95596388       22       0.13232906      -0.12579337      -0.16106440
C       10.92381317       4.41909426      10.55189954       23      -0.07250176       0.10566851       0.17812914
C        9.69734149       4.37122999       9.94334358       24      -0.04321557      -0.13388972       0.10287105
C        5.53912572       4.96251079       1.56959688       25       0.01108754       0.06831074       0.25568047
C        7.94315491       5.23315521       1.36063062       26       0.01708892       0.02402445       0.19585419
C        7.18962129       4.54304426      10.09340323       27      -0.04496045       0.06890711      -0.01776932
C        5.78754822      10.47331085       6.64944484       28       0.24577129      -0.24617153      -0.31123632
C        7.00622422       5.05108059       8.69668421       29      -0.03680630      -0.03154560       0.09836006
C        6.82062465       9.70127953       6.13005092       30      -0.16498262      -0.00016354       0.02554680
C        7.83945148      10.41577910       5.44201229       31      -0.07695979       0.09103467       0.12136614
C        8.06524958       0.76362647       5.31057497       32      -0.10316801       0.09118421       0.12910745
C        7.02417582       1.52731319       5.90086412       33       0.16209304      -0.30181658      -0.09611410
C        6.05165161       0.79596194       6.54920699       34      -0.08754444       0.19187927       0.08780476
C        4.85134029       0.94372650       7.48567552       35       0.13825701       0.07351479       0.16540310
C        4.52662104      10.42260255       7.48397593       36      -0.15739849      -0.06189710       0.29195637
C       11.10736698       6.30462709       7.04269854       37       0.03813392      -0.05016461      -0.09448919
C       11.12101075       4.96259258       5.22564795       38       0.31279266      -0.15376785      -0.24549650
C        2.73814333       4.92541355       5.26818148       39      -0.20048082       0.03735511      -0.00207263
C        7.00932104       3.02019305       5.92845146       40      -0.18051831       0.03825480       0.04791375
C        2.71510992       6.24302346       7.09946676       41      -0.02634478       0.06476930       0.19291845
C        2.80303534       7.11554225       8.33397143       42       0.04466659       0.00082597      -0.08442745
C       10.99268449       7.22111141       8.23640482       43       0.03039569      -0.06129265       0.00962676
C        6.81575501       5.58435126       3.61503323       44       0.02751211       0.02628542      -0.02106088
C        7.84174361       4.91986051       0.00579007       45      -0.10376097      -0.02208868      -0.13071817
C        6.75828051       5.26628742       2.15642872       46       0.18213168      -0.01714234      -0.20929924
C        6.06300259       4.27194562      10.86180399       47      -0.15512964      -0.09877574       0.19755059
C        6.17106363       4.01592885      12.23752402       48      -0.01919794       0.13069962      -0.15630172
C        2.96448457       4.12038062       0.32522071       49       0.11152811      -0.04729950      -0.05452666
C        9.24452698       5.53736036       1.87208446       50      -0.19061041       0.03850566      -0.04581627
C        9.07165695       1.43719209       4.54732031       51       0.01952112       0.19109526      -0.10687776
C        3.65982048       1.65691488       7.06560175       52      -0.01808709      -0.09255722      -0.22506510
C        8.98797065       9.76411691       4.88857687       53       0.34058207      -0.15726504      -0.11919385
N       10.38847177       5.66562529       6.12133821       54      -0.19539560       0.05070982       0.13910246
N        3.45844086       5.57557086       6.22174323       55       0.01695980      -0.12451671      -0.10550019
N       10.35160259       5.76229124       2.16237506       56       0.28797191       0.10009702      -0.08207259
N        9.85862558       1.98292244       3.87920359       57       0.03040124       0.04282442      -0.07561370
N        2.67143632       2.21866178       6.79880686       58      -0.11178145       0.07940964       0.09139959
N        9.98411718       9.36150632       4.42679802       59      -0.10659695      -0.03683073       0.04121992
O        5.76811084       7.62596477       6.59886214       60       0.00872841      -0.21555617      -0.02622455
O        7.98642483       7.66025331       6.09417714       61       0.15834780      -0.23656410       0.01715246
O        5.84461061       4.94853805       8.17022720       62       0.00889215       0.03599897       0.06875794
O        8.00338057       5.61797514       8.14139955       63       0.04850680       0.01455070      -0.02775114
O        5.87834662       3.56954874       5.73035304       64       0.14118911       0.00017388       0.09404131
O        8.11192539       3.58237506       6.20600407       65       0.03711861       0.04814419       0.01832393
O        5.73527017       5.89842505       4.20895237       66      -0.07135814      -0.02525373      -0.02638014
O        7.96446758       5.49034030       4.15666940       67      -0.12875363      -0.07488579       0.03241799
68
Lattice="9.77949532 0.0 0.0 -0.2744704183991526 11.069278110804191 0.0 4.428293077459977 0.05235156097304955 12.546325226398253" Properties=species:S:1:pos:R:3:spacegroup_kinds:I:1:forces:R:3 spacegroup="P 1" unit_cell=conventional occupancy="_JSON {\"0\": {\"Zn\": 1}, \"1\": {\"Zn\": 1}, \"2\": {\"H\": 1}, \"3\": {\"H\": 1}, \"4\": {\"H\": 1}, \"5\": {\"H\": 1}, \"6\": {\"H\": 1}, \"7\": {\"H\": 1}, \"8\": {\"H\": 1}, \"9\": {\"H\": 1}, \"10\": {\"H\": 1}, \"11\": {\"H\": 1}, \"12\": {\"H\": 1}, \"13\": {\"H\": 1}, \"14\": {\"H\": 1}, \"15\": {\"H\": 1}, \"16\": {\"H\": 1}, \"17\": {\"H\": 1}, \"18\": {\"C\": 1}, \"19\": {\"C\": 1}, \"20\": {\"C\": 1}, \"21\": {\"C\": 1}, \"22\": {\"C\": 1}, \"23\": {\"C\": 1}, \"24\": {\"C\": 1}, \"25\": {\"C\": 1}, \"26\": {\"C\": 1}, \"27\": {\"C\": 1}, \"28\": {\"C\": 1}, \"29\": {\"C\": 1}, \"30\": {\"C\": 1}, \"31\": {\"C\": 1}, \"32\": {\"C\": 1}, \"33\": {\"C\": 1}, \"34\": {\"C\": 1}, \"35\": {\"C\": 1}, \"36\": {\"C\": 1}, \"37\": {\"C\": 1}, \"38\": {\"C\": 1}, \"39\": {\"C\": 1}, \"40\": {\"C\": 1}, \"41\": {\"C\": 1}, \"42\": {\"C\": 1}, \"43\": {\"C\": 1}, \"44\": {\"C\": 1}, \"45\": {\"C\": 1}, \"46\": {\"C\": 1}, \"47\": {\"C\": 1}, \"48\": {\"C\": 1}, \"49\": {\"C\": 1}, \"50\": {\"C\": 1}, \"51\": {\"C\": 1}, \"52\": {\"C\": 1}, \"53\": {\"C\": 1}, \"54\": {\"N\": 1}, \"55\": {\"N\": 1}, \"56\": {\"N\": 1}, \"57\": {\"N\": 1}, \"58\": {\"N\": 1}, \"59\": {\"N\": 1}, \"60\": {\"O\": 1}, \"61\": {\"O\": 1}, \"62\": {\"O\": 1}, \"63\": {\"O\": 1}, \"64\": {\"O\": 1}, \"65\": {\"O\": 1}, \"66\": {\"O\": 1}, \"67\": {\"O\": 1}}" energy=-490.5113220214844 free_energy=-490.5113220214844 stress="0.0007582890102639794 -0.00026014549075625837 -0.0001611545740161091 -0.00026014549075625837 -0.00022521476785186678 -7.0245214374153875e-06 -0.0001611545740161091 -7.0245214374153875e-06 -0.00027315199258737266" pbc="T T T"
Zn       5.50516692       5.57776570       6.24788172        0      -0.04934327       0.12528539      -0.02906514
Zn       8.35035272       5.65354190       6.12382943        1      -0.00468501       0.10935582       0.07325879
H        5.15858288       1.34882049       8.46713584        2      -0.00893359      -0.02887097      -0.08264016
H        4.61367080       9.96254482       8.47896658        3       0.05413488       0.04162563      -0.05308928
H        3.65608984      10.01341596       6.95422406        4      -0.04715385      -0.03355721      -0.07323810
H       10.58107839       4.40995569       4.45993998        5      -0.04518485      -0.00990878       0.03588340
H        3.30509002       4.35823835       4.53180620        6      -0.06502672       0.07649963       0.15511701
H        3.16869909       6.59890781       9.22940855        7       0.03956859      -0.00834889       0.07394975
H        3.35553396       8.04872570       8.20401911        8       0.05968316       0.05849270       0.01320764
H       10.43670988       6.81359787       9.08849530        9      -0.01839830       0.07255878       0.00664025
H       11.83625134       4.28783483       9.96318579       10      -0.04999619       0.06853326       0.02230100
H       10.61556796       8.22502581       7.99117737       11      -0.02405222       0.00792388       0.01837768
H       13.16757923       4.98587423      11.93340675       12      -0.04114561      -0.01458280       0.01491921
H        4.65721849       5.02808427       2.21170604       13       0.00498788      -0.00258861      -0.01816383
H        3.01222608       4.02005141       1.41225587       14       0.02476098      -0.01708639      -0.17560714
H        0.86416847       3.71030586       0.28195846       15       0.06772754       0.02336306      -0.11591745
H        5.09005128       4.28661267      10.36470396       16       0.10214575      -0.04205295       0.03755581
H        9.62952362       4.20734228       8.87082929       17      -0.06126613       0.07070507      -0.03825067
C        6.86141341       8.20790072       6.28785264       18      -0.30946273       0.20553666       0.13723503
C        8.56401363       4.43792695      12.12845486       19      -0.13718587       0.01565449      -0.12853469
C        8.48163512       4.47393418      10.69540510       20       0.39896971      -0.01407905       0.13496035
C        5.41733446       4.62891346       0.21305149       21      -0.12350637       0.05316868      -0.13943198
C       11.02622806       4.68797133      11.95853477       22       0.25392923      -0.12823664      -0.19339436
C       10.92422451       4.42025974      10.55421280       23      -0.09679601       0.08941992       0.10504008
C        9.69750939       4.37113180       9.94371854       24      -0.02105395      -0.11104691       0.08662952
C        5.53812870       4.96136483       1.57196224       25      -0.09522453       0.04443821       0.21445397
C        7.94343208       5.23148517       1.36094105       26      -0.06474504       0.04605572       0.17905036
C        7.19189567       4.54025629      10.09043090       27      -0.17666541       0.09965563       0.02913202
C        5.78931409      10.47367796       6.64703368       28       0.11858147      -0.21998441      -0.21980496
C        7.00515034       5.04959014       8.69714569       29       0.08553776      -0.00509990       0.05081433
C        6.81972279       9.69909034       6.13211738       30      -0.01849145       0.14218080      -0.10810228
C        7.84007613      10.41652931       5.44098694       31      -0.07558376      -0.07388826       0.15057077
C        8.06341877       0.76175874       5.31239569       32       0.03754555       0.24933900       0.03253929
C        7.02536247       1.52943891       5.90319342       33       0.04383487      -0.40360957      -0.06469969
C        6.04933614       0.79804350       6.55093856       34       0.09022629       0.14926255      -0.02634498
C        4.85383633       0.94273405       7.48483423       35      -0.04525268       0.15557653       0.20990106
C        4.52714583      10.42050628       7.48268415       36      -0.17231281      -0.05351126       0.29592478
C       11.10959498       6.30574984       7.04291037       37      -0.13874501      -0.02971333      -0.06595522
C       11.12390140       4.96065554       5.22355062       38       0.08274820       0.06887370       0.04815438
C        2.73532876       4.92580581       5.27070072       39       0.16459727      -0.17459323      -0.28319341
C        7.00739790       3.01991173       5.92808327       40       0.01362903       0.19756025       0.10520748
C        2.71279403       6.24509714       7.10180771       41       0.30874503      -0.13477123      -0.07584530
C        2.80502489       7.11411449       8.33178300       42      -0.07729530       0.02846152       0.02259380
C       10.99167611       7.22308898       8.23685308       43       0.01981711      -0.06301960       0.01128161
C        6.81715038       5.58693225       3.61730037       44      -0.13652606      -0.02832518      -0.17012209
C        7.84173901       4.92016110       0.00786468       45      -0.16462655      -0.05849468      -0.23964597
C        6.75597139       5.26452216       2.15372520       46       0.31357506       0.05921907       0.04096736
C        6.06461487       4.27333127      10.86029664       47      -0.14046720      -0.12605239       0.15438858
C        6.17396237       4.01698904      12.23508447       48      -0.32075861       0.08580876      -0.13237658
C        2.96175358       4.12158850       0.32292114       49       0.33898652      -0.04128220       0.17063525
C        9.24199166       5.54005082       1.86920970       50       0.29769325       0.10467789       0.12723179
C        9.07211680       1.43945611       4.54649662       51      -0.13192493       0.06618614       0.01052234
C        3.65779762       1.65795832       7.06391273       52       0.15919274      -0.19641261      -0.16512293
C        8.99092803       9.76213977       4.88564163       53      -0.05880097       0.03589621       0.08230577
N       10.38996639       5.66664179       6.12395261       54      -0.16246918      -0.06952677      -0.04111601
N        3.45968974       5.57334757       6.22037601       55      -0.14721486       0.05204957       0.13585542
N       10.35364489       5.76003692       2.16218422       56      -0.12551066       0.03456057      -0.19605248
N        9.85880368       1.98210093       3.87713016       57       0.08416669       0.08515151      -0.12128385
N        2.66860977       2.21689592       6.79802375       58      -0.17870636       0.11630546       0.07352640
N        9.98530646       9.35911289       4.42914403       59       0.19263670      -0.15820424      -0.10810779
O        5.76693487       7.62535077       6.60033063       60       0.11650169      -0.17111829      -0.06514868
O        7.98721296       7.66216687       6.09586457       61       0.15839230      -0.26702791       0.00349886
O        5.84377171       4.94573161       8.17157262       62       0.01568678       0.05125418       0.04294829
O        8.00519997       5.61776953       8.14421164       63      -0.05691937      -0.00947877      -0.04980444
O        5.87661336       3.57116899       5.73023671       64       0.21467479      -0.04779063       0.10083582
O        8.11450712       3.58362857       6.20743521       65      -0.19469647      -0.06152841      -0.04302999
O        5.73270420       5.90088242       4.20745945       66       0.06101516      -0.03890508      -0.01876288
O        7.96489418       5.48796107       4.15776668       67      -0.13756238      -0.04793965       0.03443658
68
Lattice="9.77949532 0.0 0.0 -0.2744704183991526 11.069278110804191 0.0 4.428293077459977 0.05235156097304955 12.546325226398253" Properties=species:S:1:pos:R:3:spacegroup_kinds:I:1:forces:R:3 spacegroup="P 1" unit_cell=conventional occupancy="_JSON {\"0\": {\"Zn\": 1}, \"1\": {\"Zn\": 1}, \"2\": {\"H\": 1}, \"3\": {\"H\": 1}, \"4\": {\"H\": 1}, \"5\": {\"H\": 1}, \"6\": {\"H\": 1}, \"7\": {\"H\": 1}, \"8\": {\"H\": 1}, \"9\": {\"H\": 1}, \"10\": {\"H\": 1}, \"11\": {\"H\": 1}, \"12\": {\"H\": 1}, \"13\": {\"H\": 1}, \"14\": {\"H\": 1}, \"15\": {\"H\": 1}, \"16\": {\"H\": 1}, \"17\": {\"H\": 1}, \"18\": {\"C\": 1}, \"19\": {\"C\": 1}, \"20\": {\"C\": 1}, \"21\": {\"C\": 1}, \"22\": {\"C\": 1}, \"23\": {\"C\": 1}, \"24\": {\"C\": 1}, \"25\": {\"C\": 1}, \"26\": {\"C\": 1}, \"27\": {\"C\": 1}, \"28\": {\"C\": 1}, \"29\": {\"C\": 1}, \"30\": {\"C\": 1}, \"31\": {\"C\": 1}, \"32\": {\"C\": 1}, \"33\": {\"C\": 1}, \"34\": {\"C\": 1}, \"35\": {\"C\": 1}, \"36\": {\"C\": 1}, \"37\": {\"C\": 1}, \"38\": {\"C\": 1}, \"39\": {\"C\": 1}, \"40\": {\"C\": 1}, \"41\": {\"C\": 1}, \"42\": {\"C\": 1}, \"43\": {\"C\": 1}, \"44\": {\"C\": 1}, \"45\": {\"C\": 1}, \"46\": {\"C\": 1}, \"47\": {\"C\": 1}, \"48\": {\"C\": 1}, \"49\": {\"C\": 1}, \"50\": {\"C\": 1}, \"51\": {\"C\": 1}, \"52\": {\"C\": 1}, \"53\": {\"C\": 1}, \"54\": {\"N\": 1}, \"55\": {\"N\": 1}, \"56\": {\"N\": 1}, \"57\": {\"N\": 1}, \"58\": {\"N\": 1}, \"59\": {\"N\": 1}, \"60\": {\"O\": 1}, \"61\": {\"O\": 1}, \"62\": {\"O\": 1}, \"63\": {\"O\": 1}, \"64\": {\"O\": 1}, \"65\": {\"O\": 1}, \"66\": {\"O\": 1}, \"67\": {\"O\": 1}}" energy=-490.5124816894531 free_energy=-490.5124816894531 stress="0.0006160951452329755 -0.0005273349233902991 -0.00010194208152825013 -0.0005273349233902991 -0.00013879725884180516 -2.2355128749040887e-05 -0.00010194208152825013 -2.2355128749040887e-05 -0.00047072963207028806" pbc="T T T"
Zn       5.50239429       5.58054113       6.24874348        0      -0.02832241       0.08537036      -0.03040299
Zn       8.35180746       5.65300858       6.12563630        1      -0.03054504       0.13820094       0.05228480
H        5.15580473       1.34694320       8.46747852        2       0.01608300      -0.00194081      -0.01204920
H        4.61146798       9.96462023       8.48083423        3       0.05849840       0.02926871      -0.07129227
H        3.65817576      10.01481685       6.95462309        4      -0.11013146      -0.06776177      -0.10950721
H       10.57824537       4.41282656       4.45875310        5       0.07252501       0.05982977       0.14370404
H        3.30745042       4.35843912       4.53446619        6      -0.07081483       0.06863916       0.12760761
H        3.16673969       6.59977539       9.22970296        7       0.07581344      -0.04722771       0.14970328
H        3.35361776       8.04909471       8.20606061        8       0.08991913       0.10294563       0.01559824
H       10.43587685       6.81447020       9.08675373        9      -0.04307615       0.06076474       0.04627889
H       11.83430219       4.28758310       9.96149591       10      -0.03130521       0.07797265       0.04808196
H       10.61654562       8.22779758       7.98870040       11       0.00419105      -0.08842914       0.04923510
H       13.16644405       4.98591530      11.93571586       12       0.00498129      -0.01537056      -0.01889161
H        4.65814368       5.02695292       2.21004690       13      -0.03765516       0.01047124       0.02225788
H        3.01384834       4.02136088       1.41163647       14       0.03514530      -0.01419668      -0.17404553
H        0.86470501       3.70759975       0.28187208       15       0.03952011       0.01216853      -0.08904457
H        5.09242621       4.28834405      10.36595948       16       0.00989534      -0.04368550       0.00093892
H        9.62852085       4.20516549       8.86962572       17      -0.04337797       0.06089104      -0.08443350
C        6.85857641       8.20888731       6.28705359       18       0.00762849       0.18533266       0.05465807
C        8.56687823       4.43702545      12.12562952       19      -0.27185485       0.00175822      -0.00593628
C        8.48430707       4.47199546      10.69536883       20       0.33630136      -0.00546315      -0.03686507
C        5.41608317       4.62760644       0.21012329       21       0.04273688       0.13796829       0.06514230
C       11.02597435       4.68825615      11.95567528       22       0.24847686      -0.10565347      -0.01023195
C       10.92493323       4.42156951      10.55664312       23      -0.14743230       0.02793363      -0.16755916
C        9.69872769       4.36841750       9.94077851       24       0.00094977      -0.07765868       0.25423360
C        5.53904094       4.96345940       1.57309485       25      -0.07470655      -0.01492552       0.02680141
C        7.94169975       5.23002701       1.36300886       26       0.09405155       0.08369929       0.11159547
C        7.19375380       4.54185103      10.08947230       27      -0.28838927       0.01302426       0.22958231
C        5.78911184      10.47237019       6.64871023       28       0.15678877      -0.07600605      -0.28583050
C        7.00628179       5.04847638       8.69937790       29      -0.04307836       0.04242403      -0.05024135
C        6.81815836       9.69959204       6.13048967       30       0.03174023       0.15624277      -0.08923034
C        7.84248052      10.41938340       5.44298561       31      -0.12647557      -0.23896268       0.12983704
C        8.06266613       0.76054360       5.31041463       32       0.10930289       0.31454742       0.02028991
C        7.02667628       1.52679871       5.90077980       33      -0.00970463      -0.19163108      -0.01771331
C        6.05142509       0.80038507       6.54946018       34      -0.04274625      -0.06917715       0.10777169
C        4.85384807       0.94117312       7.48761271       35      -0.10046664       0.20775284       0.02599204
C        4.52744230      10.41943419       7.48244589       36      -0.12772670       0.00950092       0.36648864
C       11.10710141       6.30575783       7.04273104       37       0.05485237      -0.02168342      -0.05205998
C       11.12689807       4.96328650       5.22573111       38      -0.10880113      -0.11680762      -0.24617650
C        2.73609494       4.92775520       5.26984300       39       0.20117706      -0.20705719      -0.26960322
C        7.00871129       3.02093760       5.93060683       40      -0.25898296       0.11823040      -0.03453893
C        2.71378174       6.24684456       7.10334169       41       0.16319966      -0.20048404      -0.15229800
C        2.80587679       7.11495042       8.33465996       42      -0.18295240      -0.00149214      -0.09319942
C       10.99164788       7.22218624       8.23672135       43      -0.00957692       0.07382900      -0.02897270
C        6.81662069       5.58676250       3.61808660       44      -0.03150286      -0.05236193      -0.22321624
C        7.84095166       4.91927147       0.00760022       45      -0.19040291      -0.03288302      -0.10514783
C        6.75706508       5.26692511       2.15641617       46       0.22375211       0.00125500      -0.07718545
C        6.06280856       4.27408151      10.86303659       47       0.09006014      -0.09263862       0.00290431
C        6.17263592       4.01418071      12.23453831       48      -0.13552141       0.14135996      -0.02785717
C        2.96428376       4.12319348       0.32242384       49       0.21786629      -0.08858279       0.07582079
C        9.24401046       5.54178774       1.87160606       50      -0.41093084      -0.05949246      -0.09034866
C        9.07030768       1.44137466       4.54629821       51      -0.13709506       0.02876352       0.00983261
C        3.65681981       1.65925172       7.06111018       52       0.24798405      -0.26350892      -0.10558361
C        8.99145882       9.76192501       4.88641734       53       0.22858883      -0.06507137      -0.04087253
N       10.39021629       5.66550663       6.12107538       54      -0.16709024       0.03948264       0.12807105
N        3.45805499       5.57202630       6.21999732       55      -0.07489102       0.15989354       0.24666297
N       10.35114200       5.75928907       2.15993097       56       0.46932638       0.15744527      -0.03458128
N        9.85726978       1.98153997       3.87601258       57       0.11103344       0.11262666      -0.14134280
N        2.66667158       2.21738353       6.79798077       58      -0.18818446       0.12471303       0.06089012
N        9.98796075       9.35680954       4.42804612       59      -0.09894064      -0.03694269       0.02542936
O        5.76748234       7.62676487       6.59857702       60      -0.00277027      -0.23828250      -0.02918407
O        7.98890484       7.66332167       6.09338072       61      -0.02768660      -0.20484921       0.04761953
O        5.84102595       4.94656479       8.17418993       62       0.16172273       0.06913440       0.08228821
O        8.00598527       5.61764929       8.14584147       63      -0.07609630      -0.02701625      -0.06770143
O        5.87428798       3.57149171       5.73078681       64       0.34276417      -0.10820794       0.14727077
O        8.11210471       3.58517115       6.20477565       65      -0.03674936      -0.00720347       0.02767311
O        5.73477753       5.89897361       4.20544167       66      -0.13779536       0.02526274       0.10109201
O        7.96281468       5.48647487       4.15908531       67      -0.04309563      -0.05604817       0.06950670
68