70
Lattice="7.45224669 0.0 0.0 -3.730636370628798 7.7063264317327995 0.0 -0.006205420455656384 -2.2534743918901468 13.332685996642072" Properties=species:S:1:pos:R:3:spacegroup_kinds:I:1:forces:R:3 spacegroup="P 1" unit_cell=conventional occupancy="_JSON {\"0\": {\"Zn\": 1}, \"1\": {\"Zn\": 1}, \"2\": {\"H\": 1}, \"3\": {\"H\": 1}, \"4\": {\"H\": 1}, \"5\": {\"H\": 1}, \"6\": {\"H\": 1}, \"7\": {\"H\": 1}, \"8\": {\"H\": 1}, \"9\": {\"H\": 1}, \"10\": {\"H\": 1}, \"11\": {\"H\": 1}, \"12\": {\"H\": 1}, \"13\": {\"H\": 1}, \"14\": {\"H\": 1}, \"15\": {\"H\": 1}, \"16\": {\"H\": 1}, \"17\": {\"H\": 1}, \"18\": {\"H\": 1}, \"19\": {\"H\": 1}, \"20\": {\"H\": 1}, \"21\": {\"H\": 1}, \"22\": {\"H\": 1}, \"23\": {\"H\": 1}, \"24\": {\"H\": 1}, \"25\": {\"H\": 1}, \"26\": {\"C\": 1}, \"27\": {\"C\": 1}, \"28\": {\"C\": 1}, \"29\": {\"C\": 1}, \"30\": {\"C\": 1}, \"31\": {\"C\": 1}, \"32\": {\"C\": 1}, \"33\": {\"C\": 1}, \"34\": {\"C\": 1}, \"35\": {\"C\": 1}, \"36\": {\"C\": 1}, \"37\": {\"C\": 1}, \"38\": {\"C\": 1}, \"39\": {\"C\": 1}, \"40\": {\"C\": 1}, \"41\": {\"C\": 1}, \"42\": {\"C\": 1}, \"43\": {\"C\": 1}, \"44\": {\"C\": 1}, \"45\": {\"C\": 1}, \"46\": {\"C\": 1}, \"47\": {\"C\": 1}, \"48\": {\"C\": 1}, \"49\": {\"C\": 1}, \"50\": {\"S\": 1}, \"51\": {\"S\": 1}, \"52\": {\"S\": 1}, \"53\": {\"S\": 1}, \"54\": {\"S\": 1}, \"55\": {\"S\": 1}, \"56\": {\"S\": 1}, \"57\": {\"S\": 1}, \"58\": {\"N\": 1}, \"59\": {\"N\": 1}, \"60\": {\"N\": 1}, \"61\": {\"N\": 1}, \"62\": {\"O\": 1}, \"63\": {\"O\": 1}, \"64\": {\"O\": 1}, \"65\": {\"O\": 1}, \"66\": {\"O\": 1}, \"67\": {\"O\": 1}, \"68\": {\"O\": 1}, \"69\": {\"O\": 1}}" energy=1402.5986328125 free_energy=1402.5986328125 stress="-10.520055770874023 1.0841150283813477 -1.379299283027649 1.0841150283813477 -5.649103164672852 1.529178261756897 -1.379299283027649 1.529178261756897 -0.7936676144599915" pbc="T T T"
Zn       0.71155045      -2.52322736      10.17107922        0     -52.03438950      92.26760101     -15.92092419
Zn       2.91916497       6.98742775       2.91041823        1      31.32473373     -63.66465759      45.94668961
H        4.41992572       3.02402993       7.47304951        2     361.80706787    -158.42710876      32.92707443
H        0.99838486      -0.39167113      11.26357095        3      37.81253052     -20.31752014      24.01952744
H       -0.23296246       1.71901228       5.94294078        4     -45.56103897      85.28713226      25.22417641
H        3.05035057       3.97507973       1.61180724        5       8.31721306      -6.25938129      -1.98575449
H        2.48373244       1.18082300       8.24736433        6       8.08858013     -77.07980347     116.87573242
H       -0.42832365       2.73102188      12.67244105        7     -10.80055237      -5.24728775      -2.68968868
H        2.28835829       2.66672454       5.69053251        8     -38.82376862     103.84223175     -59.01283646
H        5.57800820       4.10611848       2.13942534        9      -7.58585739      -7.97310257       4.05603552
H        1.82376605       0.50316470       8.06390449       10     -40.44136810     -50.24192047      14.15025425
H       -1.07345809       4.63339623      11.89975778       11      -9.20154190       1.23274994       4.08848715
H        0.08497924       5.07822089       4.71351113       12     -18.08395576       4.90300560      12.45837879
H        5.44381401       0.87395388       2.22295527       13     -24.72167206      -2.93849111      17.45387459
H        1.79647778       0.52033039       5.70877173       14     -49.22706223     -17.77031898     -47.13770676
H       -1.12645307       2.65520854      14.06212553       15       1.06465256       2.06736708      -9.74894333
H        1.69950506       4.10986286       6.53903902       16      -0.79602146      28.74478912     -28.05273628
H        4.10413657       2.09225813      -0.37497565       17      -2.72586060      -9.39525700      24.37220383
H        5.47701020       0.18342666       5.78796683       18      97.52346039     -58.45513916    -495.43191528
H        1.32697989       7.31888424      -0.77282072       19     -18.76349831       4.06638718      -7.97289133
H       -1.67656386       6.93774027       6.49338182       20       8.49805069     -31.01055908     -23.40198708
H        1.24669513      -1.18137316      13.19790657       21      -1.21242905      -2.74011111       0.93174267
H        4.71690026      -0.37175499       7.55458922       22   -2276.51904297   -1998.64233398     255.93692017
H        0.01392373       5.08245529      12.92833490       23       0.21387416       6.94436216       3.02381563
H       -1.24052099       5.71425022       6.18522974       24     -59.49760437       5.69152784     -39.69433975
H        2.13496339      -0.27468816       0.62866776       25      40.27170563     -42.97263336      33.83990860
C        2.40829234       5.81354587       8.09971079       26     147.25714111      95.39549255      40.60073853
C        6.82805857      -1.44560196      12.66124363       27      14.67996120      43.25496292      57.17252350
C        0.33449030      -0.35905017       4.46242252       28     -21.54305649      30.41648102      48.75278091
C       -3.51180144       6.53584440       0.89860308       29      -2.49058938       4.50590754      18.03290367
C        5.16250673       0.56267569       7.54127737       30    9473.50292969   -4034.42578125    5241.92285156
C        2.59160667       4.29857527      11.99958840       31       3.20168591     -23.75949478       1.65252721
C       -1.38268946       4.10387882       4.99289070       32     -50.75716400     -83.22716522      50.62480927
C        1.31839209       2.12564242       2.39142005       33      -5.88718796      -5.51137400       9.41194820
C       -1.46457316       3.37617316       9.50087144       34      20.96451378     -79.77143097    -142.44610596
C        1.36801643       0.31166128      11.38989099       35     -60.32557297      41.06981659     -35.68414307
C        5.29855053       1.90394283       4.53262214       36     -55.85095596     148.29380798     -39.68136215
C        2.19774870       4.11522158       1.07449808       37      -3.16342735      -3.57962751     -17.75819016
C        4.78747299       0.78373188       7.42474274       38   -9645.08398438    6082.55957031   -5523.27343750
C        0.77073564       3.47871029      11.25316417       39     -10.67617416      20.52113914     -47.64654160
C       -0.73009425       2.79375379       6.06467337       40     -95.40666199     100.68238068      54.45491409
C        3.81116371       3.27765238       2.28564230       41      -5.38457298      15.08765221     -28.00786591
C        2.25614406       2.22063583       7.99881492       42    -241.69914246     -23.17168808     105.07955933
C        0.00276456       3.89541448      11.49484092       43     -20.83786964      12.03371048      -6.93582678
C        1.41527188       3.37523465       6.17336305       44     -36.61124802     -37.07588196      33.07056427
C        5.35579672       1.71455339       0.37793429       45      -3.91973996       3.13515663      -1.00225770
C        6.00568976       0.15975002       7.51849063       46    2231.95166016    -560.25231934    -131.53137207
C        0.89163992       5.22288998      11.48980831       47      49.38337708     -12.78753281     -18.87849045
C       -2.73942470       5.96277488       5.85650680       48     -47.08943939      25.74217987     -42.25958252
C        1.84004447       0.13774094       0.27978988       49     -37.04553986      51.11518860     -51.07358170
S       -1.24102666       2.67940496       8.06595938       50     124.27835083     868.12139893     114.03121185
S        3.53210902       2.00867906      11.04082057       51      35.69721222     -10.23941422      28.71487236
S        4.61653135       2.88957494       5.53564279       52     404.10128784     -87.22197723       7.94820404
S        0.17844615       2.64531278       1.23629063       53      -2.57451582     -10.37761116      11.11754227
S       -0.03780546       3.71293066       8.56508179       54      51.13208008     163.94961548     126.11900330
S        2.48594498      -1.14509598      10.44681975       55      94.67653656    -112.77645111      49.46310806
S        4.86383854       0.11480231       4.43694345       56      49.31126404      56.39696121     284.08734131
S        1.53960829       6.51935008       1.83048440       57      11.25017834       9.17574120       6.01314831
N        5.48097862       3.92329849       7.77260627       58    -189.25413513    -283.51486206     -68.62962341
N        0.40036865       2.03434021      12.38433545       59      -6.95254517       4.27734375     -14.34216309
N       -0.11525752       1.91684229       4.41624320       60     -11.05201340       4.27151394     -64.97285461
N        1.88085668       4.25215777       2.08715086       61      -5.83253860       6.39961672      15.88779259
O       -0.29219319      -1.58066348       8.71736881       62     -14.18391037     -32.69749069      30.78552628
O        2.97183690       5.59155201      12.09798116       63     -29.36559296     -34.00952148      -9.24394035
O        3.81835169       5.37963511       5.48260249       64      47.63361740    -116.82508087      -2.58203888
O       -0.64801258       0.61139256       3.06144268       65      10.88878727      63.69164276     -73.18972015
O        1.93673121       5.18041356       8.77254668       66     -48.79782104     -58.72192383     -42.16366959
O        5.92468719      -0.62108429      12.55143499       67      14.26564026     -42.12171173      59.37548065
O        0.09216473       1.10373517       5.57527210       68     -65.69902802      25.00185394      68.00411224
O       -2.43184692       6.50304731       1.40409131       69      -5.61907387      -4.94215202      14.72380543
70
Lattice="7.45224669 0.0 0.0 -3.730636370628798 7.7063264317327995 0.0 -0.006205420455656384 -2.2534743918901468 13.332685996642072" Properties=species:S:1:pos:R:3:spacegroup_kinds:I:1:forces:R:3 spacegroup="P 1" unit_cell=conventional occupancy="_JSON {\"0\": {\"Zn\": 1}, \"1\": {\"Zn\": 1}, \"2\": {\"H\": 1}, \"3\": {\"H\": 1}, \"4\": {\"H\": 1}, \"5\": {\"H\": 1}, \"6\": {\"H\": 1}, \"7\": {\"H\": 1}, \"8\": {\"H\": 1}, \"9\": {\"H\": 1}, \"10\": {\"H\": 1}, \"11\": {\"H\": 1}, \"12\": {\"H\": 1}, \"13\": {\"H\": 1}, \"14\": {\"H\": 1}, \"15\": {\"H\": 1}, \"16\": {\"H\": 1}, \"17\": {\"H\": 1}, \"18\": {\"H\": 1}, \"19\": {\"H\": 1}, \"20\": {\"H\": 1}, \"21\": {\"H\": 1}, \"22\": {\"H\": 1}, \"23\": {\"H\": 1}, \"24\": {\"H\": 1}, \"25\": {\"H\": 1}, \"26\": {\"C\": 1}, \"27\": {\"C\": 1}, \"28\": {\"C\": 1}, \"29\": {\"C\": 1}, \"30\": {\"C\": 1}, \"31\": {\"C\": 1}, \"32\": {\"C\": 1}, \"33\": {\"C\": 1}, \"34\": {\"C\": 1}, \"35\": {\"C\": 1}, \"36\": {\"C\": 1}, \"37\": {\"C\": 1}, \"38\": {\"C\": 1}, \"39\": {\"C\": 1}, \"40\": {\"C\": 1}, \"41\": {\"C\": 1}, \"42\": {\"C\": 1}, \"43\": {\"C\": 1}, \"44\": {\"C\": 1}, \"45\": {\"C\": 1}, \"46\": {\"C\": 1}, \"47\": {\"C\": 1}, \"48\": {\"C\": 1}, \"49\": {\"C\": 1}, \"50\": {\"S\": 1}, \"51\": {\"S\": 1}, \"52\": {\"S\": 1}, \"53\": {\"S\": 1}, \"54\": {\"S\": 1}, \"55\": {\"S\": 1}, \"56\": {\"S\": 1}, \"57\": {\"S\": 1}, \"58\": {\"N\": 1}, \"59\": {\"N\": 1}, \"60\": {\"N\": 1}, \"61\": {\"N\": 1}, \"62\": {\"O\": 1}, \"63\": {\"O\": 1}, \"64\": {\"O\": 1}, \"65\": {\"O\": 1}, \"66\": {\"O\": 1}, \"67\": {\"O\": 1}, \"68\": {\"O\": 1}, \"69\": {\"O\": 1}}" energy=825.93408203125 free_energy=825.93408203125 stress="-10.702770233154297 2.931112289428711 -4.902469635009766 2.931112289428711 -6.120814800262451 -1.2864596843719482 -4.902469635009766 -1.2864596843719482 -3.233142614364624" pbc="T T T"
Zn       1.71152137      -3.21560153      10.84176248        0      68.50014496      52.42441559     -73.98970032
Zn       1.91916497       7.98739062       1.91225244        1     156.35220337    -199.51452637     100.75315857
H        3.42457941       2.32642552       8.36788928        2     -31.42099762      45.87104034      -4.21841049
H       -0.00124238      -1.38153155      12.24111985        3      -1.52459323      -3.46227837       8.20480251
H        0.76458708       0.71901365       4.94294078        4       5.82906008       6.55971146      16.87898064
H        2.06585838       4.97507973       2.46224989        5    -496.94338989     341.02142334    -434.03472900
H        3.46003000       0.18082300       7.56440197        6      -0.80038965       0.23278236       0.26858002
H        0.53942588       3.73102188      13.67035316        7    -303.70504761       7.47994232     134.86036682
H        3.28698929       1.81214336       4.69053257        8      22.95087433      41.18832016     -39.37638474
H        4.58864370       5.10611848       2.92752064        9      23.60315323    -173.22204590     -11.39276886
H        0.94980341      -0.49683530       7.07049390       10       1.30470765      -0.05912301      -1.37921095
H       -0.13141753       3.63379814      10.90589295       11      22.47660828     -80.74791718    -107.67638397
H        1.07334447       4.08854280       5.71351113       12      -4.07300615     -17.88203049      35.32260513
H        6.43148055      -0.12604612       3.01364212       13     -44.38611221      39.73826981     -18.36003113
H        2.76611691       1.51091351       6.70872131       14      -1.65117514      -1.01328635       1.06872940
H       -2.12645307       3.65170701      15.06212553       15      79.24213409     -88.57804871      77.79222107
H        0.69950685       3.11818343       7.53903836       16      -1.17221975      -0.34043896       1.37639427
H        5.10215001       1.16909162      -1.37493572       17     101.02265930     115.87888336     -23.17273521
H        4.98086826      -0.80686541       4.78796683       18     -29.11088371      24.08590889      10.99433327
H        0.33090999       8.29517852       0.21413051       19     161.12088013     -87.56381226     123.74333191
H       -0.67661285       6.71899975       5.74414726       20      -0.02209306      -1.56736636      -2.47179174
H        2.24669513      -0.18143986      14.19777997       21      33.92715454      13.90663815      11.82045460
H        4.04721263       0.59586627       7.08104942       22      -2.10556316      -0.50943947       4.13374138
H       -0.77326105       4.08253701      11.94401181       23     -87.98923492     -64.76813507     -33.74231339
H       -2.22899870       4.85575642       5.18523081       24      24.36249924      12.08485985     -32.82611084
H        3.13496333       0.69968667      -0.32350005       25     -43.90636444     100.24578857     -18.71214104
C        3.40556591       6.81353371       8.36332405       26     -16.90986443      -3.56555843       4.99485970
C        7.76422307      -1.03629988      13.49236573       27      13.72348022      23.10660172     -57.05220032
C        1.33408743      -0.98193128       5.45271674       28      -0.24821854       6.37392521      13.81471348
C       -2.62377675       5.53597410       1.89860308       29     184.77336121     221.96694946       9.33094788
C        6.16249606      -0.43725284       7.45105107       30      -1.02453864       1.98085415       0.91076541
C        1.88910681       5.26090865      12.99845960       31     321.47033691     431.92697144      11.35785103
C       -0.38268958       3.10459145       4.00050770       32      26.46852112      -4.00302315      45.33322144
C        2.30003559       3.03905439       1.41240524       33     -75.29269409    -125.87878418    -152.37142944
C       -1.88889099       2.37617316      10.49623044       34     -83.88210297      41.61280441      40.37349701
C        2.21252353       1.31166128      10.39012339       35     -10.01815224      16.99826431      -2.36780667
C        4.29856418       2.90394230       5.53262179       36     -34.93610764      59.03675079     -92.18741608
C        1.19774899       4.38633334       1.86325868       37     313.58905029     621.21282959    -662.18310547
C        3.78747621       1.78373188       8.42261467       38      35.94780731     -48.43492126       6.40068817
C        1.66863175       2.71763372      12.25316417       39    -230.05612183    -651.77911377    -830.91790771
C        0.26990194       3.79375379       6.80393238       40      -2.43544698       9.04349709      -4.17569351
C        2.81116371       4.02679420       2.98605720       41     -11.24525642     -75.06665802     280.14581299
C        1.25614412       1.22063583       6.99881492       42       4.18234015       5.98694038       0.29643765
C        0.89595161       2.89545781      12.49483514       43    -337.69815063    -482.44482422    -199.92558289
C        2.41526956       2.69274049       7.16511228       44      -2.85912228       0.56719220      -3.79995823
C        4.58577361       0.98881069      -0.61937009       45     -80.65119934     191.75973511     191.39631653
C        5.42926790      -0.71736177       6.51852514       46      -0.69294822      -0.89733195     -15.86036777
C       -0.10836008       4.42412909      10.49218696       47     -22.00253487     -17.43584824    -109.52370453
C       -3.73942464       6.95105750       4.98342327       48      10.57413864     -16.36625671      34.57703781
C        1.19333634      -0.86185125      -0.47937982       49      -5.99532938      33.35590744     -47.88389587
S       -2.24102351       3.43072139       8.84948068       50      -7.19996881       0.83026457      -8.78640938
S        4.52637571       2.57139823      12.04081514       51     124.37663269    -108.39992523      16.87684631
S        5.59540907       3.88957399       4.53564279       52     -57.33385849     -34.45232391    -241.25508118
S       -0.49496564       3.59721195       0.23629063       53    -182.73390198    -176.87203979     140.64573669
S       -0.97041228       4.65670650       9.55570622       54     -12.29397392      19.64509773     -53.26710892
S        3.46396928      -0.27095715      11.44403938       55    -121.39627075     173.89042664      -6.79536343
S        3.86385315       1.11480231       3.45410023       56      78.47760010     207.39379883     -99.65647125
S        2.53960817       5.52756211       0.83090187       57  -12559.09277344    7137.30908203   -4273.21582031
N        6.44790239       4.92273600       6.77314987       58       8.44534016      -3.75155210       0.61018741
N       -0.39021085       3.03434021      11.82968496       59      23.42748260     -79.77305603     -79.27183533
N       -1.11525752       1.29685927       4.44247824       60     -20.51413155       9.20479679      -7.77238941
N        2.88085615       5.25215777       1.12624668       61   13383.07226562   -8574.09765625    6499.56396484
O        0.69900249      -0.58299694       8.15085503       62      16.75249100       1.34225118      -0.98961866
O        1.97183696       6.59148418      13.09797973       63     141.56776428     -77.07179260      83.85939026
O        4.81807745       4.37963529       5.21163057       64     -81.08889771     -28.74161148     -26.79643250
O       -1.64801181      -0.32639068       2.07967008       65    -510.29516602     998.53118896     120.31250000
O        2.93654274       4.18545736       7.77254668       66      -1.87392235      -4.24559736      -4.40882969
O        4.92468719      -1.62104001      12.24554065       67      77.64269257      62.74574661     -98.26501465
O       -0.14123843       2.08696839       4.59155197       68      36.37152863     -31.84241486    -105.87819672
O       -2.66360467       7.44569924       1.21843550       69      17.02625275     187.80867004     -42.05940628
70
Lattice="7.45224669 0.0 0.0 -3.730636370628798 7.7063264317327995 0.0 -0.006205420455656384 -2.2534743918901468 13.332685996642072" Properties=species:S:1:pos:R:3:spacegroup_kinds:I:1:forces:R:3 spacegroup="P 1" unit_cell=conventional occupancy="_JSON {\"0\": {\"Zn\": 1}, \"1\": {\"Zn\": 1}, \"2\": {\"H\": 1}, \"3\": {\"H\": 1}, \"4\": {\"H\": 1}, \"5\": {\"H\": 1}, \"6\": {\"H\": 1}, \"7\": {\"H\": 1}, \"8\": {\"H\": 1}, \"9\": {\"H\": 1}, \"10\": {\"H\": 1}, \"11\": {\"H\": 1}, \"12\": {\"H\": 1}, \"13\": {\"H\": 1}, \"14\": {\"H\": 1}, \"15\": {\"H\": 1}, \"16\": {\"H\": 1}, \"17\": {\"H\": 1}, \"18\": {\"H\": 1}, \"19\": {\"H\": 1}, \"20\": {\"H\": 1}, \"21\": {\"H\": 1}, \"22\": {\"H\": 1}, \"23\": {\"H\": 1}, \"24\": {\"H\": 1}, \"25\": {\"H\": 1}, \"26\": {\"C\": 1}, \"27\": {\"C\": 1}, \"28\": {\"C\": 1}, \"29\": {\"C\": 1}, \"30\": {\"C\": 1}, \"31\": {\"C\": 1}, \"32\": {\"C\": 1}, \"33\": {\"C\": 1}, \"34\": {\"C\": 1}, \"35\": {\"C\": 1}, \"36\": {\"C\": 1}, \"37\": {\"C\": 1}, \"38\": {\"C\": 1}, \"39\": {\"C\": 1}, \"40\": {\"C\": 1}, \"41\": {\"C\": 1}, \"42\": {\"C\": 1}, \"43\": {\"C\": 1}, \"44\": {\"C\": 1}, \"45\": {\"C\": 1}, \"46\": {\"C\": 1}, \"47\": {\"C\": 1}, \"48\": {\"C\": 1}, \"49\": {\"C\": 1}, \"50\": {\"S\": 1}, \"51\": {\"S\": 1}, \"52\": {\"S\": 1}, \"53\": {\"S\": 1}, \"54\": {\"S\": 1}, \"55\": {\"S\": 1}, \"56\": {\"S\": 1}, \"57\": {\"S\": 1}, \"58\": {\"N\": 1}, \"59\": {\"N\": 1}, \"60\": {\"N\": 1}, \"61\": {\"N\": 1}, \"62\": {\"O\": 1}, \"63\": {\"O\": 1}, \"64\": {\"O\": 1}, \"65\": {\"O\": 1}, \"66\": {\"O\": 1}, \"67\": {\"O\": 1}, \"68\": {\"O\": 1}, \"69\": {\"O\": 1}}" energy=776.2694091796875 free_energy=776.2694091796875 stress="-1.8070178031921387 -2.7673699855804443 -1.7221935987472534 -2.7673699855804443 -8.977583885192871 -1.2862998247146606 -1.7221935987472534 -1.2862998247146606 -3.63250470161438" pbc="T T T"
Zn       2.69893930      -2.34519264       9.84205073        0      -4.35811234      -1.46293497       1.59586799
Zn       1.19340129       8.98736547       2.91225244        1    1596.69799805    6953.91992188     357.23083496
H        4.42457798       3.32586017       7.76435362        2       8.32104397      29.64943314      -6.14737606
H        0.99875071      -0.38153393      11.76902078        3       3.70088005       1.95585275      -6.49394989
H       -0.19617829       1.71899398       4.96651749        4       8.19356346      -3.15581036     -10.60980225
H        1.09072818       5.97504564       1.46374364        5       2.66896963      17.91612816       4.48221207
H        2.46006832      -0.81917700       8.56389980        6      -0.21983889      -0.85336965       1.59958220
H        1.53884742       4.73102188      14.66411071        7      14.33124733     -27.07195282      91.58847809
H        4.28684719       0.81250159       4.28371844        8      29.73078156      60.60028839     226.21276855
H        5.58531287       4.10611890       1.92752064        9     -12.15680218     -67.07107544      12.88837242
H        0.83400230      -1.49669189       6.56883558       10      -7.71912289       3.39547324      -0.83958554
H        0.86850826       2.63379814       9.90589295       11       5.69551039      -6.20908356       0.46121442
H        2.07331765       3.08854286       6.67622407       12      -0.82154882      -1.45809722      -5.71631718
H        7.43145743      -0.13085105       2.68070538       13      44.15227509      -6.05429363      -4.41571760
H        3.56402676       2.51091351       7.70868739       14     -73.29090881       5.65033388     -24.72227287
H       -3.12645277       2.86613829      14.06260881       15      -7.81924009      21.32884598      13.26960278
H       -0.26718691       2.24426680       8.50437623       16      -0.49498758      -0.20464939       0.59380925
H        6.10214232       2.05633697      -2.24154231       17      69.41093445     154.86558533     -82.70980835
H        3.98087070      -1.79940422       5.78796653       18     -21.10440063      95.67723083     -73.69517517
H        1.33090999       7.29519062      -0.75950731       19      -2.42088270      -1.85255504      11.53655910
H        0.32334167       5.72390634       5.92001638       20      46.59619904     -96.47528076      73.93387604
H        3.24669513      -1.18140028      13.19833626       21      -4.28249931      -5.96883440       4.27847052
H        5.04721024       1.59586371       8.07959655       22       4.45610619      -6.67398977       6.37020588
H        0.22673800       3.12695051      12.94386042       23       3.09040117      -7.29016018      -7.06240320
H       -1.22899953       3.85575773       4.18523081       24       1.26506233     -75.31030273      55.57532120
H        4.13496333       1.68584283      -1.32350005       25      62.83377075      -6.67850685     133.03698730
C        4.34378468       7.81353365       7.36352593       26      -5.58722782      -1.68364954       0.50751781
C        8.76403066      -2.01786863      14.21762432       27     -34.84144211     -29.72502899      -3.58960104
C        1.80010193      -1.98192925       6.45271644       28       6.22720909      12.88526821      10.46388340
C       -2.06065233       4.96307368       1.44790026       29      -3.27800131      15.42850018     -13.86437035
C        7.16249606       0.53443727       8.44780346       30       1.52564085      -0.10735261      -1.01092911
C        1.36153346       4.38945864      13.99845853       31     -10.02581596     -43.15540314     -57.98746872
C       -1.34118973       4.10428038       3.66164406       32     -47.23368454     -15.74684906     -27.06395531
C        3.29999029       2.23363411       0.42057131       33      33.28176498      33.74144745     -12.69203568
C       -1.47710083       3.37617310      11.49620809       34       1.67764997       1.57816029      -1.48993516
C        2.90713734       2.31166128      11.39011576       35     -32.71036911      96.06700134       9.70650673
C        5.29856412       3.78463108       6.52694480       36     -16.03318214      -1.78687477      13.74430180
C        2.19774899       3.38633334       2.83561059       37      33.85865021      -2.05598879      -6.45067883
C        2.78747651       2.78373188       9.42261443       38     -10.12559319      -3.38252711     -15.00254631
C        2.66862978       1.71763372      11.25316429       39      48.83566666     -82.07078552      23.81489182
C        1.00446112       4.71118788       5.80393303       40      20.97760773      45.77434158      15.99195290
C        1.81632351       3.02679736       3.94116584       41      -2.89062428       8.65655136      -1.83493233
C        0.25678970       0.25623328       6.17104123       42       6.48977089     -15.51222420      -8.55656815
C        1.89595161       1.90608359      13.49477106       43     -29.55020714      14.98438644      16.98856354
C        1.41526956       2.25151481       8.16439112       44      -2.85417295       2.23710132      -6.42038298
C        3.98048594       1.64287207      -1.61937009       45     -89.68878174     -37.67483902    -164.81671143
C        5.53931676       0.28263823       5.51852520       46      36.38247299      13.71191311      63.35034943
C        0.71782896       3.42412909       9.49219470       47      15.21789551       3.01755190      17.79375839
C       -4.73942273       5.95105750       4.12214682       48       6.20596790     -42.17110062      16.18807983
C        2.19239447       0.13793257      -0.91682927       49      -6.57501268      -5.65955067      -2.37341356
S       -3.24101588       2.43072162       7.97464757       50      64.10685730     -71.06994629     -22.59592438
S        3.54943073       3.24788448      11.04081514       51       3.09593701       4.44170761       0.00532126
S        6.59540907       4.85500061       5.53563195       52     -85.04624176    -109.84735870       1.42547989
S       -1.35204508       4.59654533      -0.76370937       53      17.95055008      14.50428295      10.73183537
S        0.02958724       3.81938522       8.55570622       54     -17.92599106      10.07646751     -26.36233521
S        4.46100580       0.72903981      12.44393340       55     -36.17783356      20.39368629      15.52287292
S        4.45864718       0.31662447       2.48588840       56   -2680.70141602   -4159.60791016   -3502.54052734
S        3.53960817       4.52756211      -0.16909813       57      14.78123856       3.97043133      -2.01193261
N        5.74270756       3.93198676       5.79131283       58      -1.80502486     -28.84751511      -4.90431118
N        0.18068542       2.07410407      10.82968550       59      -4.14393425      -2.11998248       3.64040041
N       -0.11525752       0.29685927       3.44247836       60       8.68279552       8.31833649      19.24543571
N        2.53858038       6.25215777       2.12624662       61     -47.82687759     -22.00801849      15.36479568
O       -0.25855698      -1.58299647       8.05067146       62       2.21538377       1.49064374      -2.84473896
O        2.93679133       5.70510726      14.09793026       63      13.61168957      -9.81518269      32.35414505
O        3.81807745       5.16355242       4.21389715       64     -42.30281448      21.61129379      17.56171417
O       -2.64751286       0.67026407       3.07966573       65    1145.56787109   -2590.29492188    2745.74633789
O        3.93654274       3.18547232       8.77254668       66       0.20592880      19.58171844      24.30656052
O        5.92434565      -0.62400182      11.26949385       67     -46.88239288    -138.64167786      61.42654037
O        0.83946164       3.08213195       5.59147645       68      11.12197876       4.07230186       6.51426697
O       -1.66363894       8.44355091       0.23095451       69      -4.26973152      25.27345657     -30.22340775
