66
Lattice="6.46417885 0.0 0.0 5.2264223203707896e-05 10.463761999869476 0.0 -4.789228908505017e-05 -4.197321283559241 9.70689342435845" Properties=species:S:1:pos:R:3:spacegroup_kinds:I:1:forces:R:3 spacegroup="P 1" unit_cell=conventional occupancy="_JSON {\"0\": {\"Fe\": 1}, \"1\": {\"Fe\": 1}, \"2\": {\"P\": 1}, \"3\": {\"P\": 1}, \"4\": {\"P\": 1}, \"5\": {\"P\": 1}, \"6\": {\"H\": 1}, \"7\": {\"H\": 1}, \"8\": {\"H\": 1}, \"9\": {\"H\": 1}, \"10\": {\"H\": 1}, \"11\": {\"H\": 1}, \"12\": {\"H\": 1}, \"13\": {\"H\": 1}, \"14\": {\"H\": 1}, \"15\": {\"H\": 1}, \"16\": {\"H\": 1}, \"17\": {\"H\": 1}, \"18\": {\"H\": 1}, \"19\": {\"H\": 1}, \"20\": {\"H\": 1}, \"21\": {\"H\": 1}, \"22\": {\"H\": 1}, \"23\": {\"H\": 1}, \"24\": {\"H\": 1}, \"25\": {\"H\": 1}, \"26\": {\"H\": 1}, \"27\": {\"H\": 1}, \"28\": {\"C\": 1}, \"29\": {\"C\": 1}, \"30\": {\"C\": 1}, \"31\": {\"C\": 1}, \"32\": {\"C\": 1}, \"33\": {\"C\": 1}, \"34\": {\"C\": 1}, \"35\": {\"C\": 1}, \"36\": {\"C\": 1}, \"37\": {\"C\": 1}, \"38\": {\"C\": 1}, \"39\": {\"C\": 1}, \"40\": {\"C\": 1}, \"41\": {\"C\": 1}, \"42\": {\"C\": 1}, \"43\": {\"C\": 1}, \"44\": {\"C\": 1}, \"45\": {\"C\": 1}, \"46\": {\"C\": 1}, \"47\": {\"C\": 1}, \"48\": {\"N\": 1}, \"49\": {\"N\": 1}, \"50\": {\"N\": 1}, \"51\": {\"N\": 1}, \"52\": {\"O\": 1}, \"53\": {\"O\": 1}, \"54\": {\"O\": 1}, \"55\": {\"O\": 1}, \"56\": {\"O\": 1}, \"57\": {\"O\": 1}, \"58\": {\"O\": 1}, \"59\": {\"O\": 1}, \"60\": {\"O\": 1}, \"61\": {\"O\": 1}, \"62\": {\"O\": 1}, \"63\": {\"O\": 1}, \"64\": {\"O\": 1}, \"65\": {\"O\": 1}}" energy=-442.9558410644531 free_energy=-442.9558410644531 stress="-0.006006105337291956 0.00034127055550925434 0.00014526200538966805 0.00034127055550925434 -0.006607255898416042 -0.00019951062859036028 0.00014526200538966805 -0.00019951062859036028 -0.009045759215950966" pbc="T T T"
Fe       4.85064045       7.47821452       3.02086873        0      -0.01453413      -0.23367533      -0.76670432
Fe       1.61878936      -1.21201870       6.68616603        1      -0.01911226       0.23950495       0.73533046
P        4.84746495      -1.92200507       6.15589523        2       0.10294449       0.47032434       0.13521203
P        1.61868723       8.18584045       3.54919400        3      -0.13325815      -0.42630103      -0.22992927
P        4.85049852       4.53745819       4.69395290        4      -0.07530639      -0.17426962       0.10557371
P        1.61569814       1.72881196       5.01192883        5      -0.00917952       0.12142360      -0.14486542
H        4.84714515       7.16309805       6.46609917        6      -0.00078632      -0.06283137       0.07024647
H        1.61408805      -0.90012109       3.23613884        7       0.00822543       0.07029322      -0.07128982
H        0.38943012       4.08729682       5.57813902        8      -0.07623433       0.22056070       0.22367495
H        3.62402767       2.17921175       4.12927026        9      -0.16764121      -0.29401895      -0.22613141
H        6.07585577       2.17981714       4.12887868       10       0.06676695      -0.21390603      -0.21964869
H        2.84207129       4.08722022       5.57887463       11       0.10831521       0.23617534       0.21509285
H        4.84956899       3.73663946       7.48317313       12       0.00279750       0.13594821      -0.00074096
H        1.61409792       2.53311235       2.22339250       13       0.00270254      -0.15461156       0.01151316
H        4.84611299       2.11639931       1.72512807       14      -0.00499834       0.11444318       0.00922631
H        1.61760805       4.14782788       7.98362743       15       0.00022147      -0.06532352      -0.00029474
H        4.84771961       0.09590161       3.22098453       16       0.00880632       0.02477771      -0.10749902
H        1.61886164       6.16852466       6.48829874       17      -0.00879938      -0.03040069       0.05793953
H        4.84889508       4.70306523       1.48182386       18       0.00130018       0.04756125      -0.03758147
H        1.61432207       1.56416452       8.22637502       19      -0.00358351      -0.04097544       0.00645621
H        4.84804126       5.68373172       8.05440761       20       0.00450685      -0.05104156       0.03388765
H        1.61373513       0.58244126       1.65085835       21       0.01120501       0.08499887       0.02628145
H        4.85017950      -2.45171207       8.92514747       22      -0.00659033      -0.09030324      -0.00239909
H        1.61750749       8.71966396       0.77885678       23      -0.00229227       0.03591059       0.07244391
H        4.84982724      -0.35040444       8.79431402       24       0.00688490      -0.06848986       0.08088711
H        1.61844740       6.61652816       0.90962002       25       0.00104360       0.13107543      -0.04812317
H        4.85058577       1.28854919       6.94331629       26      -0.01131494      -0.01352315      -0.09294601
H        1.61888235       4.97743190       2.76447484       27      -0.00993532      -0.01917434       0.02605541
C        4.84966274       2.99247764       8.27557622       28      -0.05127000      -0.08806943      -0.08828279
C        1.61528698       3.27705189       1.43139929       29      -0.00142486      -0.15746361      -0.04381126
C        4.84538294       1.11656027       1.29541433       30       0.03954492      -0.00577355      -0.05400937
C        1.61767084       5.15013762       8.41150554       31      -0.01255645      -0.07774241       0.12302760
C        4.85021599       0.01105313       2.13933246       32      -0.04827476      -0.02612279      -0.07126564
C        1.61608936       6.25337319       7.56857486       33       0.03050535       0.25084007       0.06021082
C        4.84540011       3.38988497       9.62145903       34       0.07184530       0.30602321       0.15952477
C        1.61702000       2.87589611       0.08362220       35      -0.01238428      -0.21146873      -0.06712820
C        4.84814578       5.37403869       0.61933916       36       0.03303844      -0.09533548       0.08824697
C        1.61427540       0.89129134       9.08631650       37       0.01574737       0.17327192       0.04760510
C        4.84906231       5.87352255       9.12674598       38       0.00529318      -0.04239446      -0.04422472
C        1.61856856       0.39695212       0.57978887       39      -0.02726001      -0.18134567      -0.00781416
C        4.84977762       9.00061245       0.33009330       40      -0.03950088      -0.24259603      -0.03977410
C        1.61795994      -2.73331903       9.37674791       41       0.00429361       0.30256131      -0.08217070
C        4.84817644      -3.29026717       9.62018835       42      -0.00193486       0.15206631       0.19581874
C        1.61723303       9.55745862       0.08704994       43       0.01178905       0.00361094      -0.24599597
C        4.85090557       0.70761463       9.01462690       44      -0.05236439       0.04297166      -0.02680119
C        1.61709273       5.55989992       0.69318821       45      -0.01604848      -0.21457082      -0.10543839
C        4.84584787       1.63054136       7.97145094       46       0.06265065       0.13344474      -0.06388452
C        1.61516855       4.63313838       1.73471136       47       0.02352468       0.16701511       0.16498606
N        4.85043772       6.67718837       0.91700785       48      -0.04793018       0.09368946       0.21258807
N        1.61516580      -0.41115853       8.78836458       49       0.00432479      -0.11841451      -0.20790939
N        4.84764463       9.22481805       1.65887951       50       0.02983120      -0.03795488       0.43404499
N        1.61835604      -2.95497239       8.04531144       51      -0.01197522      -0.17251167      -0.36743140
O        4.84829355       5.60041409       3.60258661       52       0.00722836       0.34485900      -0.33851600
O        1.61415560       0.66506531       6.09892936       53       0.00455388      -0.44435197       0.45017701
O        4.85063791      -1.83983980       4.61657582       54      -0.01854144      -0.03632586       0.02064648
O        1.61889656       8.10644106       5.08514028       55       0.00235632       0.03083216       0.10867205
O        6.09250978      -1.29708468       6.79866750       56      -0.21676885      -0.33561924      -0.03217252
O        2.85827893       7.56220903       2.90422467       57      -0.08151928       0.27077568      -0.01167235
O        0.37383542       7.56141602       2.90406216       58       0.22907096       0.32097059       0.04834970
O        3.60775353      -1.29632239       6.80171082       59       0.13725564      -0.29401320      -0.01927228
O        4.84961057       3.10423655       4.12758947       60      -0.01286101      -0.03651649      -0.14252926
O        1.61502292       3.15719707       5.57932528       61       0.00940312       0.19113690       0.18825252
O        6.08605360       4.75469300       5.65073411       62       0.06787109      -0.19061175       0.24360159
O        2.85255061       1.50950758       4.05946792       63       0.18856095       0.27440763      -0.28242606
O        0.37826370       1.51244644       4.05865694       64      -0.06113656       0.16888323      -0.28921977
O        3.61131304       4.75401952       5.65025627       65      -0.04709084      -0.21231052       0.22433038
66
Lattice="6.46417885 0.0 0.0 5.2264223203707896e-05 10.463761999869476 0.0 -4.789228908505017e-05 -4.197321283559241 9.70689342435845" Properties=species:S:1:pos:R:3:spacegroup_kinds:I:1:forces:R:3 spacegroup="P 1" unit_cell=conventional occupancy="_JSON {\"0\": {\"Fe\": 1}, \"1\": {\"Fe\": 1}, \"2\": {\"P\": 1}, \"3\": {\"P\": 1}, \"4\": {\"P\": 1}, \"5\": {\"P\": 1}, \"6\": {\"H\": 1}, \"7\": {\"H\": 1}, \"8\": {\"H\": 1}, \"9\": {\"H\": 1}, \"10\": {\"H\": 1}, \"11\": {\"H\": 1}, \"12\": {\"H\": 1}, \"13\": {\"H\": 1}, \"14\": {\"H\": 1}, \"15\": {\"H\": 1}, \"16\": {\"H\": 1}, \"17\": {\"H\": 1}, \"18\": {\"H\": 1}, \"19\": {\"H\": 1}, \"20\": {\"H\": 1}, \"21\": {\"H\": 1}, \"22\": {\"H\": 1}, \"23\": {\"H\": 1}, \"24\": {\"H\": 1}, \"25\": {\"H\": 1}, \"26\": {\"H\": 1}, \"27\": {\"H\": 1}, \"28\": {\"C\": 1}, \"29\": {\"C\": 1}, \"30\": {\"C\": 1}, \"31\": {\"C\": 1}, \"32\": {\"C\": 1}, \"33\": {\"C\": 1}, \"34\": {\"C\": 1}, \"35\": {\"C\": 1}, \"36\": {\"C\": 1}, \"37\": {\"C\": 1}, \"38\": {\"C\": 1}, \"39\": {\"C\": 1}, \"40\": {\"C\": 1}, \"41\": {\"C\": 1}, \"42\": {\"C\": 1}, \"43\": {\"C\": 1}, \"44\": {\"C\": 1}, \"45\": {\"C\": 1}, \"46\": {\"C\": 1}, \"47\": {\"C\": 1}, \"48\": {\"N\": 1}, \"49\": {\"N\": 1}, \"50\": {\"N\": 1}, \"51\": {\"N\": 1}, \"52\": {\"O\": 1}, \"53\": {\"O\": 1}, \"54\": {\"O\": 1}, \"55\": {\"O\": 1}, \"56\": {\"O\": 1}, \"57\": {\"O\": 1}, \"58\": {\"O\": 1}, \"59\": {\"O\": 1}, \"60\": {\"O\": 1}, \"61\": {\"O\": 1}, \"62\": {\"O\": 1}, \"63\": {\"O\": 1}, \"64\": {\"O\": 1}, \"65\": {\"O\": 1}}" energy=-442.9739990234375 free_energy=-442.9739990234375 stress="-0.006679700221866369 0.0004712241643574089 0.000267102790530771 0.0004712241643574089 -0.00630467152222991 -0.0009033990208990872 0.000267102790530771 -0.0009033990208990872 -0.007982506416738033" pbc="T T T"
Fe       4.85293968       7.47562022       3.01791349        0      -0.01729889      -0.18715735      -0.74289668
Fe       1.62119673      -1.20905101       6.68884274        1      -0.03487573       0.19301045       0.68498230
P        4.84920109      -1.92002405       6.15413855        2       0.10426363       0.28764364       0.21942970
P        1.62064387       8.18347722       3.54624704        3      -0.22035058      -0.30621222       0.00198227
P        4.85255330       4.53640789       4.69573522        4      -0.13401997      -0.04656747       0.02114534
P        1.61779532       1.72938025       5.00982911        5      -0.05713082       0.09591755      -0.07686752
H        4.84658669       7.16082074       6.46460963        6       0.00887841       0.00771940       0.06057927
H        1.61253064      -0.90271635       3.23367100        7       0.01407774       0.08128230      -0.06504141
H        0.38989087       4.08961483       5.58080749        8       0.01915866       0.12246374       0.20556550
H        3.62325176       2.17719017       4.12690256        9      -0.12116440      -0.25236446      -0.21945471
H        6.07856059       2.18105896       4.12820286       10       0.03319734      -0.19001716      -0.21748640
H        2.84189479       4.08875800       5.58168112       11       0.06230722       0.17753136       0.19649416
H        4.84813050       3.73832996       7.48130816       12       0.01341434       0.01184237       0.13057491
H        1.61134550       2.53458170       2.22303314       13       0.01155148      -0.14944804      -0.01177204
H        4.84448106       2.11686218       1.72344252       14      -0.00442361       0.14268605       0.03656565
H        1.61877123       4.14654332       7.98322603       15       0.00601547      -0.08518734      -0.01238914
H        4.84829454       0.09376669       3.21985432       16       0.00577600       0.03015889      -0.13884562
H        1.61826267       6.16615811       6.48532425       17       0.00032852      -0.00889999       0.18683055
H        4.84691750       4.70315824       1.48306460       18       0.00916510       0.02568126       0.00581383
H        1.61330948       1.56586984       8.22496570       19       0.00726960      -0.07816295       0.09651563
H        4.84827730       5.68539380       8.05603790       20      -0.00000092      -0.06300604      -0.00809541
H        1.61189943       0.58337646       1.65332600       21       0.00520285       0.05919346      -0.03187928
H        4.85071524      -2.45056350       8.92296939       22      -0.00561251      -0.18258730       0.08280593
H        1.61800789       8.72143774       0.77900386       23      -0.00653621       0.01830550       0.06438803
H        4.84921739      -0.35041408       8.79166303       24       0.00515085      -0.12129608       0.08443526
H        1.62118197       6.61945890       0.90838390       25      -0.01269553      -0.01118724      -0.06483697
H        4.85297381       1.28619536       6.94096579       26      -0.02329989       0.02973506      -0.01690372
H        1.61760728       4.97923933       2.76348421       27      -0.00466702      -0.04650945      -0.02099171
C        4.85158475       2.98973628       8.27722717       28      -0.07314376       0.20289776      -0.17920078
C        1.61677128       3.27710235       1.42891157       29      -0.02168605      -0.14033383       0.04815801
C        4.84396285       1.11712292       1.29639519       30       0.05828445       0.03998036      -0.10862455
C        1.62059439       5.14786636       8.41116962       31      -0.02710342       0.02441981       0.07142822
C        4.85032073       0.01165924       2.13690976       32      -0.06190686      -0.07778236       0.06392372
C        1.61871721       6.25413338       7.56932015       33       0.02223799       0.06802914      -0.12566990
C        4.84751832       3.39266891       9.62406837       34       0.07275657       0.07544845       0.01637612
C        1.61776638       2.87656323       0.08309312       35       0.00718763      -0.18079504      -0.21148844
C        4.84922241       5.37364968       0.62226623       36       0.01047137      -0.09197289      -0.11821577
C        1.61644251       0.89318624       9.08889188       37      -0.01287226       0.14693117      -0.23494363
C        4.84754932       5.87120771       9.12767847       38       0.04551193       0.13260967      -0.02762898
C        1.61646385       0.39534970       0.58091832       39      -0.00665572      -0.00553702      -0.12059759
C        4.85215847       8.99906934       0.32849313       40      -0.07739604      -0.14856094       0.03628195
C        1.61911975      -2.73084453       9.37474774       41      -0.00566652       0.10515183       0.00780843
C        4.84914258      -3.28992011       9.62292246       42      -0.03066671       0.12964012       0.00430886
C        1.61725457       9.55703524       0.08461514       43       0.01814866       0.00228802      -0.13003004
C        4.85018983       0.70545458       9.01481748       44      -0.04557678       0.21983710       0.03357202
C        1.61594497       5.55838353       0.69287311       45       0.02472959       0.06516894      -0.02872312
C        4.84496718       1.63154538       7.97053430       46       0.08841110      -0.06983770      -0.03802598
C        1.61625550       4.63342000       1.73252480       47       0.00729216       0.12335005       0.29058781
N        4.85150954       6.67781176       0.91740427       48      -0.04058179       0.08467293       0.25873429
N        1.61765161      -0.40867631       8.78566974       49       0.00223661      -0.16352603      -0.09008102
N        4.84737495       9.22642926       1.65707759       50       0.05458573      -0.10046508       0.45549247
N        1.62128607      -2.95641531       8.04249965       51      -0.01775086      -0.02707538      -0.23867378
O        4.85112480       5.60333277       3.59995818       52       0.00721515       0.18216175      -0.16530219
O        1.61152429       0.66375660       6.09850849       53       0.02093580      -0.35959753       0.37260571
O        4.85114824      -1.84221490       4.61843310       54      -0.00387361      -0.02112052      -0.12816432
O        1.62080029       8.10484745       5.08575244       55      -0.00799958       0.05275737       0.02151361
O        6.09126234      -1.29727404       6.80057557       56      -0.13173422      -0.30493158      -0.01871647
O        2.85838496       7.56464356       2.90604010       57       0.07840704       0.18301964      -0.10197298
O        0.37616242       7.56225489       2.90259079       58       0.16200636       0.27459270       0.01457804
O        3.61053303      -1.29798333       6.79936142       59       0.04596483      -0.23218654       0.02626685
O        4.84746849       3.10520084       4.12738096       60       0.01348432      -0.04347754      -0.14996600
O        1.61501019       3.15790005       5.57873471       61       0.03313965       0.13997224       0.17421082
O        6.08865057       4.75184843       5.65352618       62      -0.08181241      -0.08060160       0.22788231
O        2.85395620       1.50857777       4.05692676       63       0.13261141       0.23262545      -0.26867819
O        0.37929999       1.51497247       4.05571495       64      -0.00892316       0.13964605      -0.28369227
O        3.61061357       4.75175775       5.65253856       65       0.08604971      -0.13196722       0.19402087
66
Lattice="6.46417885 0.0 0.0 5.2264223203707896e-05 10.463761999869476 0.0 -4.789228908505017e-05 -4.197321283559241 9.70689342435845" Properties=species:S:1:pos:R:3:spacegroup_kinds:I:1:forces:R:3 spacegroup="P 1" unit_cell=conventional occupancy="_JSON {\"0\": {\"Fe\": 1}, \"1\": {\"Fe\": 1}, \"2\": {\"P\": 1}, \"3\": {\"P\": 1}, \"4\": {\"P\": 1}, \"5\": {\"P\": 1}, \"6\": {\"H\": 1}, \"7\": {\"H\": 1}, \"8\": {\"H\": 1}, \"9\": {\"H\": 1}, \"10\": {\"H\": 1}, \"11\": {\"H\": 1}, \"12\": {\"H\": 1}, \"13\": {\"H\": 1}, \"14\": {\"H\": 1}, \"15\": {\"H\": 1}, \"16\": {\"H\": 1}, \"17\": {\"H\": 1}, \"18\": {\"H\": 1}, \"19\": {\"H\": 1}, \"20\": {\"H\": 1}, \"21\": {\"H\": 1}, \"22\": {\"H\": 1}, \"23\": {\"H\": 1}, \"24\": {\"H\": 1}, \"25\": {\"H\": 1}, \"26\": {\"H\": 1}, \"27\": {\"H\": 1}, \"28\": {\"C\": 1}, \"29\": {\"C\": 1}, \"30\": {\"C\": 1}, \"31\": {\"C\": 1}, \"32\": {\"C\": 1}, \"33\": {\"C\": 1}, \"34\": {\"C\": 1}, \"35\": {\"C\": 1}, \"36\": {\"C\": 1}, \"37\": {\"C\": 1}, \"38\": {\"C\": 1}, \"39\": {\"C\": 1}, \"40\": {\"C\": 1}, \"41\": {\"C\": 1}, \"42\": {\"C\": 1}, \"43\": {\"C\": 1}, \"44\": {\"C\": 1}, \"45\": {\"C\": 1}, \"46\": {\"C\": 1}, \"47\": {\"C\": 1}, \"48\": {\"N\": 1}, \"49\": {\"N\": 1}, \"50\": {\"N\": 1}, \"51\": {\"N\": 1}, \"52\": {\"O\": 1}, \"53\": {\"O\": 1}, \"54\": {\"O\": 1}, \"55\": {\"O\": 1}, \"56\": {\"O\": 1}, \"57\": {\"O\": 1}, \"58\": {\"O\": 1}, \"59\": {\"O\": 1}, \"60\": {\"O\": 1}, \"61\": {\"O\": 1}, \"62\": {\"O\": 1}, \"63\": {\"O\": 1}, \"64\": {\"O\": 1}, \"65\": {\"O\": 1}}" energy=-442.985107421875 free_energy=-442.985107421875 stress="-0.007277015596628189 0.0004579676897265017 0.00038006252725608647 0.0004579676897265017 -0.00680104224011302 -0.0018176063895225525 0.00038006252725608647 -0.0018176063895225525 -0.0073428675532341" pbc="T T T"
Fe       4.85506553       7.47296929       3.01534311        0      -0.02059355      -0.15744846      -0.71516919
Fe       1.62354121      -1.20682348       6.69155011        1      -0.04551562       0.15828316       0.65116966
P        4.84932084      -1.91727185       6.15601434        2       0.21296169       0.07297182      -0.03829953
P        1.62196531       8.18057735       3.54388250        3      -0.13541864      -0.17927742       0.04613459
P        4.85245709       4.53383244       4.69720436        4      -0.06014102       0.04375505      -0.04907897
P        1.61704909       1.72949520       5.00944971        5      -0.03217307       0.13620523      -0.16223052
H        4.84788609       7.15811114       6.46184469        6       0.00764144       0.08329782       0.05150122
H        1.61477209      -0.90385473       3.23216028        7       0.01479326       0.05571057      -0.06489126
H        0.39219980       4.09093069       5.58359683        8       0.01808773       0.10895471       0.19530043
H        3.62275004       2.17474084       4.12402416        9      -0.06840742      -0.19005308      -0.20223516
H        6.07972541       2.18036746       4.12649091       10       0.00008699      -0.16444045      -0.21427932
H        2.84213416       4.09108597       5.58441360       11       0.02958511       0.12788576       0.18114030
H        4.84906900       3.73646910       7.48018974       12       0.01010932       0.06747696       0.07071227
H        1.61126928       2.53297538       2.22337803       13       0.00561438      -0.12311196      -0.06064516
H        4.84639108       2.11544391       1.72279025       14      -0.00336194       0.16886708       0.04138905
H        1.62015204       4.14666759       7.98239325       15      -0.00685411      -0.03626438       0.00055522
H        4.84820137       0.09114222       3.21860229       16      -0.00762186       0.03239516      -0.17835246
H        1.61959810       6.16354733       6.48724375       17       0.01125642       0.01313230       0.06833379
H        4.84430066       4.70078111       1.48523617       18       0.01766018       0.13771877      -0.14038199
H        1.61057799       1.56568037       8.22669085       19       0.02353982      -0.05906526       0.03402443
H        4.84753250       5.68818126       8.05447829       20       0.00102109      -0.07567614      -0.04016091
H        1.61237083       0.58192550       1.65554910       21       0.00729149       0.07472038      -0.03087944
H        4.84806020      -2.45242166       8.92529484       22       0.01001347      -0.09817119      -0.00273627
H        1.61903917       8.72047322       0.77889226       23      -0.00347823       0.09968394       0.00329091
H        4.85163157      -0.35202945       8.78944775       24      -0.00524645      -0.07564209       0.09034181
H        1.62279446       6.61913519       0.90613979       25      -0.02410172      -0.03229140      -0.07792040
H        4.85565741       1.28613390       6.94366183       26      -0.02560295       0.02808134      -0.06232762
H        1.61838039       4.97990527       2.76066158       27      -0.00867618      -0.03091303       0.07693260
C        4.85030471       2.99045666       8.27507224       28      -0.07463528       0.19606699      -0.07100505
C        1.61493877       3.27488987       1.42640888       29      -0.00361948      -0.07896029       0.20749098
C        4.84636712       1.11734472       1.29427891       30       0.03371435      -0.06198275      -0.07499953
C        1.61843451       5.15026218       8.40870334       31       0.01417107      -0.01894170       0.17754881
C        4.84751117       0.00907450       2.13433397       32      -0.00255057       0.14317472       0.13735810
C        1.62151651       6.25686088       7.56749815       33      -0.00885847      -0.10189626      -0.05309322
C        4.84576490       3.39443537       9.62214851       34       0.10619113      -0.02182662       0.03440753
C        1.61860688       2.87370813       0.08230617       35      -0.01403398      -0.04700458      -0.27175155
C        4.84855844       5.37435892       0.61934957       36      -0.00043645      -0.23939350       0.07273939
C        1.61847476       0.89126693       9.08675141       37      -0.05482423       0.08826894      -0.18619677
C        4.84891434       5.87285476       9.12528737       38       0.04238193      -0.02677901       0.04479209
C        1.61731346       0.39718572       0.58278921       39      -0.02279547       0.01640884      -0.20233518
C        4.85344875       8.99747145       0.32752825       40      -0.08665390       0.02086380      -0.04406565
C        1.61749205      -2.72797705       9.37446560       41       0.04088990      -0.12604079      -0.02098778
C        4.85177602      -3.29082355       9.62088105       42      -0.05143060       0.14501542       0.11447701
C        1.61816438       9.55987319       0.08434801       43       0.00394014      -0.10696407      -0.14945000
C        4.84785928       0.70496121       9.01301093       44      -0.02245828       0.19233340       0.05076045
C        1.61363146       5.55749399       0.68991007       45       0.06157034       0.00834680       0.09119858
C        4.84427276       1.63296372       7.97154711       46       0.08875386      -0.11798640      -0.09145373
C        1.61522119       4.63231484       1.73350788       47       0.00166269       0.09688972       0.03206590
N        4.85304029       6.67746993       0.91569154       48      -0.05948432       0.14087866       0.21983036
N        1.62005843      -0.41150118       8.78347324       49       0.00492832      -0.09672236      -0.06550349
N        4.84845483       9.22788656       1.65554931       50       0.03444320      -0.29641065       0.39541528
N        1.62416742      -2.95805337       8.04064109       51      -0.03270409       0.19715834      -0.12735070
O        4.85279537       5.60334366       3.59858948       52       0.00356427       0.08405063      -0.06799343
O        1.61164245       0.66411001       6.09578412       53       0.02030051      -0.40036890       0.41599271
O        4.85365457      -1.84180368       4.61575979       54      -0.01329106      -0.02405670      -0.00837749
O        1.62371957       8.10762792       5.08369826       55      -0.00731320       0.03833875       0.03562593
O        6.09278750      -1.29854504       6.79801948       56      -0.07357458      -0.25838622       0.03197083
O        2.86056171       7.56424501       2.90307045       57       0.07715145       0.16287711      -0.10120571
O        0.37891656       7.56354784       2.90091114       58       0.07542582       0.21245341      -0.02526054
O        3.61326427      -1.30037194       6.79815759       59      -0.10154165      -0.14139186       0.10516897
O        4.84714621       3.10397733       4.12863431       60       0.02761600      -0.04640758      -0.16162504
O        1.61733453       3.15764906       5.57856424       61       0.00773581       0.14978737       0.17964381
O        6.08940962       4.75073810       5.65638823       62      -0.11973966      -0.07403073       0.20198721
O        2.85360065       1.51142967       4.05437137       63       0.03662924       0.15286332      -0.26649427
O        0.37873841       1.51504002       4.05277384       64       0.05638396       0.11994034      -0.25366896
O        3.61291714       4.74886019       5.65407176       65       0.09002130      -0.06695044       0.22310591
66
Lattice="6.46417885 0.0 0.0 5.2264223203707896e-05 10.463761999869476 0.0 -4.789228908505017e-05 -4.197321283559241 9.70689342435845" Properties=species:S:1:pos:R:3:spacegroup_kinds:I:1:forces:R:3 spacegroup="P 1" unit_cell=conventional occupancy="_JSON {\"0\": {\"Fe\": 1}, \"1\": {\"Fe\": 1}, \"2\": {\"P\": 1}, \"3\": {\"P\": 1}, \"4\": {\"P\": 1}, \"5\": {\"P\": 1}, \"6\": {\"H\": 1}, \"7\": {\"H\": 1}, \"8\": {\"H\": 1}, \"9\": {\"H\": 1}, \"10\": {\"H\": 1}, \"11\": {\"H\": 1}, \"12\": {\"H\": 1}, \"13\": {\"H\": 1}, \"14\": {\"H\": 1}, \"15\": {\"H\": 1}, \"16\": {\"H\": 1}, \"17\": {\"H\": 1}, \"18\": {\"H\": 1}, \"19\": {\"H\": 1}, \"20\": {\"H\": 1}, \"21\": {\"H\": 1}, \"22\": {\"H\": 1}, \"23\": {\"H\": 1}, \"24\": {\"H\": 1}, \"25\": {\"H\": 1}, \"26\": {\"H\": 1}, \"27\": {\"H\": 1}, \"28\": {\"C\": 1}, \"29\": {\"C\": 1}, \"30\": {\"C\": 1}, \"31\": {\"C\": 1}, \"32\": {\"C\": 1}, \"33\": {\"C\": 1}, \"34\": {\"C\": 1}, \"35\": {\"C\": 1}, \"36\": {\"C\": 1}, \"37\": {\"C\": 1}, \"38\": {\"C\": 1}, \"39\": {\"C\": 1}, \"40\": {\"C\": 1}, \"41\": {\"C\": 1}, \"42\": {\"C\": 1}, \"43\": {\"C\": 1}, \"44\": {\"C\": 1}, \"45\": {\"C\": 1}, \"46\": {\"C\": 1}, \"47\": {\"C\": 1}, \"48\": {\"N\": 1}, \"49\": {\"N\": 1}, \"50\": {\"N\": 1}, \"51\": {\"N\": 1}, \"52\": {\"O\": 1}, \"53\": {\"O\": 1}, \"54\": {\"O\": 1}, \"55\": {\"O\": 1}, \"56\": {\"O\": 1}, \"57\": {\"O\": 1}, \"58\": {\"O\": 1}, \"59\": {\"O\": 1}, \"60\": {\"O\": 1}, \"61\": {\"O\": 1}, \"62\": {\"O\": 1}, \"63\": {\"O\": 1}, \"64\": {\"O\": 1}, \"65\": {\"O\": 1}}" energy=-442.9910888671875 free_energy=-442.9910888671875 stress="-0.007673767860978842 0.0006183833465911448 0.0004846533411182463 0.0006183833465911448 -0.005426285322755575 -0.0011429470032453537 0.0004846533411182463 -0.0011429470032453537 -0.00721997395157814" pbc="T T T"