68
Lattice="7.84620935 0.0 0.0 0.0056393400306868555 9.097384272126547 0.0 0.03473782909175592 0.010029123877485894 8.814930277706335" Properties=species:S:1:pos:R:3:spacegroup_kinds:I:1:forces:R:3 spacegroup="P 1" unit_cell=conventional occupancy="_JSON {\"0\": {\"Fe\": 1}, \"1\": {\"Fe\": 1}, \"2\": {\"Fe\": 1}, \"3\": {\"Fe\": 1}, \"4\": {\"H\": 1}, \"5\": {\"H\": 1}, \"6\": {\"H\": 1}, \"7\": {\"H\": 1}, \"8\": {\"H\": 1}, \"9\": {\"H\": 1}, \"10\": {\"H\": 1}, \"11\": {\"H\": 1}, \"12\": {\"H\": 1}, \"13\": {\"H\": 1}, \"14\": {\"H\": 1}, \"15\": {\"H\": 1}, \"16\": {\"H\": 1}, \"17\": {\"H\": 1}, \"18\": {\"H\": 1}, \"19\": {\"H\": 1}, \"20\": {\"H\": 1}, \"21\": {\"H\": 1}, \"22\": {\"H\": 1}, \"23\": {\"H\": 1}, \"24\": {\"H\": 1}, \"25\": {\"H\": 1}, \"26\": {\"H\": 1}, \"27\": {\"H\": 1}, \"28\": {\"C\": 1}, \"29\": {\"C\": 1}, \"30\": {\"C\": 1}, \"31\": {\"C\": 1}, \"32\": {\"C\": 1}, \"33\": {\"C\": 1}, \"34\": {\"C\": 1}, \"35\": {\"C\": 1}, \"36\": {\"C\": 1}, \"37\": {\"C\": 1}, \"38\": {\"C\": 1}, \"39\": {\"C\": 1}, \"40\": {\"C\": 1}, \"41\": {\"C\": 1}, \"42\": {\"C\": 1}, \"43\": {\"C\": 1}, \"44\": {\"O\": 1}, \"45\": {\"O\": 1}, \"46\": {\"O\": 1}, \"47\": {\"O\": 1}, \"48\": {\"O\": 1}, \"49\": {\"O\": 1}, \"50\": {\"O\": 1}, \"51\": {\"O\": 1}, \"52\": {\"O\": 1}, \"53\": {\"O\": 1}, \"54\": {\"O\": 1}, \"55\": {\"O\": 1}, \"56\": {\"O\": 1}, \"57\": {\"O\": 1}, \"58\": {\"O\": 1}, \"59\": {\"O\": 1}, \"60\": {\"O\": 1}, \"61\": {\"O\": 1}, \"62\": {\"O\": 1}, \"63\": {\"O\": 1}, \"64\": {\"O\": 1}, \"65\": {\"O\": 1}, \"66\": {\"O\": 1}, \"67\": {\"O\": 1}}" energy=-433.7607727050781 free_energy=-433.7607727050781 stress="-0.004242094699293375 0.0004004577349405736 0.00023647943453397602 0.0004004577349405736 0.009354442358016968 0.00015809886099305004 0.00023647943453397602 0.00015809886099305004 0.004186427220702171" pbc="T T T"
Fe       0.82602184       0.66797981       7.81981934        0      -0.27773139       0.20539010       0.17574374
Fe       3.15587877       8.44557904       3.40401346        1       0.22197483      -0.31019616       0.26838380
Fe       4.72075543       3.89192212       1.00018484        2      -0.29304165      -0.29645082      -0.23300570
Fe       7.06927894       5.21585972       5.39140212        3       0.34246862       0.21762714      -0.19071227
H        0.01490028       3.08869209       0.28205928        4       0.03910332       0.09174857       0.00004949
H        3.93635297       6.00621090       4.71217601        5      -0.06517959      -0.06779231      -0.00787505
H        3.95764933       1.46925499       8.50598787        6       0.21148445      -0.01918580       0.18165709
H        7.86818749       7.64502677       4.10717594        7      -0.24747440       0.00414394       0.19468541
H        0.30226891       3.23084829       7.53346714        8      -0.04297826       0.12513134      -0.09907388
H        3.69802096       5.86923276       3.14824842        9      -0.04346298      -0.05849911       0.01247068
H        4.15112883       1.32798760       1.26290866       10       0.05777301      -0.05743507      -0.00513427
H        7.62241249       7.76983322       5.67789540       11      -0.06749831       0.05333871      -0.02091866
H        6.62000383       9.04671158       2.30042209       12       0.10640279       0.05781103       0.02540349
H        5.19920553       0.05983702       6.67803995       13      -0.13662328      -0.07095834       0.03529083
H        2.72951271       4.62364272       6.53281691       14       0.12961113      -0.09545787      -0.01322627
H        1.22963386       4.47831399       2.09005144       15      -0.09526663       0.07977025      -0.05292156
H        5.99445938       0.79558528       0.36331837       16      -0.22493282       0.13899571      -0.21329491
H        5.79788579       8.30984846       4.74393770       17       0.12785323      -0.05121887      -0.19967452
H        2.12378165       3.76868307       8.47312918       18      -0.18456602      -0.09526692       0.18623239
H        1.85798170       5.34238294       4.03967202       19       0.19929911       0.11886480       0.20039055
H        6.77894683       6.78121852       0.25610762       20      -0.11897477      -0.11544318       0.01938613
H        5.04460905       2.34690699       4.66577029       21       0.12268950       0.12271611      -0.00001471
H        2.85021315       6.89062059       8.56770350       22      -0.11434984       0.13819912       0.02988830
H        1.10276704       2.25470788       4.17690447       23       0.11630405      -0.14742355       0.09690069
H        7.13414148       6.47986513       1.96262997       24       0.02216563       0.14147687       0.01124065
H        4.69550567       2.62598804       6.37281119       25      -0.08979298      -0.04447354       0.10472455
H        3.21397411       7.19593226       6.86585745       26       0.08089217      -0.11318538      -0.04416470
H        0.73221057       1.91057431       2.48648858       27      -0.00268650       0.15890443      -0.00156188
C        7.10827724       8.58280025       1.42515492       28       0.02745029       0.13190293      -0.21726413
C        4.69970923       0.53345885       5.81434153       29       0.12375654      -0.16973071      -0.26905373
C        3.22138687       5.08905803       7.40512720       30      -0.15684211      -0.04309802       0.25904691
C        0.74633041       4.02766017       2.97326174       31      -0.01147586       0.07160147       0.27158961
C        0.76599551       8.59759751       1.69158891       32      -0.21921583      -0.08602911       0.06692952
C        3.20149146       0.51075688       6.09228643       33       0.15275429       0.11952248       0.13320373
C        4.72023170       5.08212758       7.13184245       34      -0.21667100       0.00301233       0.00081573
C        7.08832835       4.02257101       2.71250039       35       0.26899147       0.01612811      -0.00709921
C        5.12321271       7.02400620       1.61931644       36       0.06142762      -0.11538432       0.02418712
C        6.69972594       2.07472407       6.02475857       37      -0.13605329      -0.09256852       0.10086446
C        1.21372368       6.61714345       7.18653690       38       0.12527657       0.05796701       0.01081502
C        2.74321938       2.47963548       2.79311036       39      -0.12299210       0.06280021       0.00797816
C        6.59414866       7.15147208       1.27557490       40      -0.09024841      -0.01289231      -0.05270363
C        5.22834811       1.96291772       5.67969768       41       0.04695950      -0.14362377      -0.17014369
C        2.68186010       6.51770747       7.54846120       42      -0.01564422      -0.19681439       0.06582757
C        1.27650324       2.60194374       3.15166444       43       0.00107750       0.08340192      -0.07799201
O        4.56875362       5.87364548       1.62342625       44       0.13516353      -0.06229423      -0.24098738
O        7.26280997       3.21559665       6.02657164       45      -0.04433836       0.30994242      -0.29643828
O        0.63543044       7.75291896       7.20779059       46       0.05982611       0.21453780       0.22610930
O        3.30150971       1.33476348       2.79642459       47      -0.03884484      -0.19472936       0.21079028
O        0.69379373       2.86931109       8.37521187       48       0.34950730      -0.58366179      -0.08501653
O        3.29592870       6.23800760       3.98623635       49      -0.23516355       0.51877272      -0.24369167
O        4.56039388       1.69535864       0.42797836       50       0.09383004       0.45979714       0.03603531
O        7.21963437       7.40827667       4.83580458       51      -0.04348974      -0.40828866       0.03644594
O        4.49526852       8.08203923       1.95260040       52      -0.07586360      -0.06445447      -0.17406256
O        7.31251004       1.00941698       6.37001200       53       0.09186064       0.11470485      -0.16763069
O        0.62137080       5.55087900       6.81793732       54      -0.14440992       0.08552397       0.14639452
O        3.35912065       3.54158014       2.44857592       55       0.08424798      -0.11345886       0.16047993
O        1.54133811       0.01746857       0.84066980       56       0.07580570      -0.01984302      -0.36294660
O        2.42213575       9.08045783       5.25266593       57      -0.10390314       0.01442185      -0.37762067
O        5.50402573       4.56794589       7.97918649       58       0.14373712      -0.00698647       0.39391166
O        6.30859992       4.52802380       3.57047531       59      -0.11292336      -0.01539621       0.36682135
O        1.15917313       8.08957153       2.80512208       60      -0.20348868       0.12969978      -0.22658563
O        2.81361785       1.01715742       7.21033379       61       0.24441151      -0.12751476      -0.28409740
O        5.10810568       5.58021269       6.01249201       62      -0.26307908      -0.06686111       0.18855128
O        6.69551159       3.52191608       1.59748001       63       0.23458391       0.06815341       0.17384224
O        6.83568824       0.25747557       0.26589008       64       0.12209548      -0.41410083       0.73640585
O        4.96365944       8.86688662       4.64454091       65       0.00095904       0.36845696       0.77100676
O        2.96109424       4.31651524       8.57109534       66       0.09501323       0.44152153      -0.83739948
O        0.99848913       4.82922493       4.11699373       67      -0.07754970      -0.44527003      -0.75818962
68
Lattice="7.84620935 0.0 0.0 0.0056393400306868555 9.097384272126547 0.0 0.03473782909175592 0.010029123877485894 8.814930277706335" Properties=species:S:1:pos:R:3:spacegroup_kinds:I:1:forces:R:3 spacegroup="P 1" unit_cell=conventional occupancy="_JSON {\"0\": {\"Fe\": 1}, \"1\": {\"Fe\": 1}, \"2\": {\"Fe\": 1}, \"3\": {\"Fe\": 1}, \"4\": {\"H\": 1}, \"5\": {\"H\": 1}, \"6\": {\"H\": 1}, \"7\": {\"H\": 1}, \"8\": {\"H\": 1}, \"9\": {\"H\": 1}, \"10\": {\"H\": 1}, \"11\": {\"H\": 1}, \"12\": {\"H\": 1}, \"13\": {\"H\": 1}, \"14\": {\"H\": 1}, \"15\": {\"H\": 1}, \"16\": {\"H\": 1}, \"17\": {\"H\": 1}, \"18\": {\"H\": 1}, \"19\": {\"H\": 1}, \"20\": {\"H\": 1}, \"21\": {\"H\": 1}, \"22\": {\"H\": 1}, \"23\": {\"H\": 1}, \"24\": {\"H\": 1}, \"25\": {\"H\": 1}, \"26\": {\"H\": 1}, \"27\": {\"H\": 1}, \"28\": {\"C\": 1}, \"29\": {\"C\": 1}, \"30\": {\"C\": 1}, \"31\": {\"C\": 1}, \"32\": {\"C\": 1}, \"33\": {\"C\": 1}, \"34\": {\"C\": 1}, \"35\": {\"C\": 1}, \"36\": {\"C\": 1}, \"37\": {\"C\": 1}, \"38\": {\"C\": 1}, \"39\": {\"C\": 1}, \"40\": {\"C\": 1}, \"41\": {\"C\": 1}, \"42\": {\"C\": 1}, \"43\": {\"C\": 1}, \"44\": {\"O\": 1}, \"45\": {\"O\": 1}, \"46\": {\"O\": 1}, \"47\": {\"O\": 1}, \"48\": {\"O\": 1}, \"49\": {\"O\": 1}, \"50\": {\"O\": 1}, \"51\": {\"O\": 1}, \"52\": {\"O\": 1}, \"53\": {\"O\": 1}, \"54\": {\"O\": 1}, \"55\": {\"O\": 1}, \"56\": {\"O\": 1}, \"57\": {\"O\": 1}, \"58\": {\"O\": 1}, \"59\": {\"O\": 1}, \"60\": {\"O\": 1}, \"61\": {\"O\": 1}, \"62\": {\"O\": 1}, \"63\": {\"O\": 1}, \"64\": {\"O\": 1}, \"65\": {\"O\": 1}, \"66\": {\"O\": 1}, \"67\": {\"O\": 1}}" energy=-433.791259765625 free_energy=-433.791259765625 stress="-0.003577801864594221 -8.281000191345811e-05 0.0003765233850572258 -8.281000191345811e-05 0.009583668783307076 -6.811043476773193e-06 0.0003765233850572258 -6.811043476773193e-06 0.004375111777335405" pbc="T T T"
Fe       0.82326308       0.66578763       7.82166648        0      -0.26496884       0.21325928       0.16660954
Fe       3.15349385       8.44302976       3.40649057        1       0.26355690      -0.27673256       0.23307426
Fe       4.71783582       3.88939895       0.99971138        2      -0.26246020      -0.26309797      -0.24833786
Fe       7.07000523       5.21820876       5.38872656        3       0.35426626       0.20164271      -0.17766039
H        0.01678078       3.08750660       0.28408165        4       0.10921840       0.06461217      -0.07723540
H        3.93512826       6.00585273       4.70970869        5      -0.08976038      -0.04423561       0.00428942
H        3.95991721       1.46735671       8.50863092        6       0.24145767       0.00458487       0.18117112
H        7.86634257       7.64294842       4.10987405        7      -0.24090590       0.00947631       0.17159748
H        0.30015016       3.23341716       7.53240639        8       0.01272087       0.07340349      -0.00798533
H        3.70080134       5.86847597       3.15050395        9      -0.06778393      -0.04542422      -0.02643425
H        4.15306118       1.32584134       1.26076502       10       0.04209678      -0.07673471       0.07855669
H        7.62425165       7.77146387       5.67868528       11      -0.08664645       0.04117211      -0.02106939
H        6.61900465       9.04798323       2.29778878       12       0.10139146       0.04905091       0.03274366
H        5.19722328       0.06073390       6.67520975       13      -0.04744659      -0.14817874       0.17915116
H        2.73151337       4.62445845       6.53336255       14       0.10611278      -0.10855021      -0.05057501
H        1.22861574       4.47822164       2.09075154       15      -0.09200636       0.08282805      -0.05078493
H        5.99505719       0.79795358       0.36522011       16      -0.20612107       0.11790118      -0.21003640
H        5.80013502       8.31147293       4.74317891       17       0.12995833      -0.05076058      -0.18300059
H        2.12253752       3.77036529       8.47463112       18      -0.17324068      -0.08328697       0.15967058
H        1.86058015       5.34359748       4.04204613       19       0.08061593       0.03983470       0.17790908
H        6.77790078       6.78173857       0.25357277       20      -0.12360586      -0.09673472       0.11110304
H        5.04503975       2.34456720       4.66384040       21       0.14153434       0.10544124       0.07629605
H        2.85113876       6.89026271       8.56626006       22      -0.11723618       0.13082516       0.02118169
H        1.10561374       2.25307400       4.17694770       23       0.11207083      -0.12524092       0.03058591
H        7.13318483       6.48147508       1.96456602       24       0.02920225       0.14958706      -0.00535941
H        4.69560552       2.62839062       6.37415500       25      -0.05901145      -0.08637193       0.05964022
H        3.21588159       7.19687323       6.86425358       26       0.03855316      -0.16930732       0.00728482
H        0.73499222       1.91299302       2.48489196       27      -0.06385408       0.09865923      -0.05734544
C        7.10599298       8.58300924       1.42217652       28       0.06469332       0.12430127      -0.05197531
C        4.70163859       0.53214998       5.81602847       29       0.03541633      -0.04366634      -0.38034949
C        3.22115503       5.09181343       7.40421598       30      -0.13359667      -0.12953095       0.28104240
C        0.74419429       4.02939872       2.97471082       31       0.07466054       0.01571697       0.13844490
C        0.76315793       8.59861050       1.69250571       32      -0.12853773      -0.07224071      -0.04190906
C        3.20243644       0.50997413       6.09445267       33       0.11560763      -0.01199824      -0.14822805
C        4.71856951       5.08472104       7.12989560       34       0.03223822      -0.17597832       0.25475833
C        7.09017842       4.02549821       2.70978792       35       0.11480424      -0.00278638       0.10563809
C        5.12588431       7.02194342       1.61750392       36      -0.11748278       0.05223083       0.09117050
C        6.69939241       2.07758247       6.02602540       37      -0.08506534      -0.17422895       0.10159199
C        1.21636748       6.61835652       7.18645522       38       0.01421878       0.09614749       0.03258270
C        2.74342001       2.48180233       2.79163682       39      -0.11080292      -0.25298700       0.06693768
C        6.59315828       7.15261032       1.27638909       40      -0.01831794      -0.11312953      -0.16955975
C        5.23107974       1.96341213       5.68131557       41      -0.08728379      -0.11058158      -0.20814878
C        2.68194085       6.51533958       7.54728246       42       0.04742546       0.00053284       0.03596713
C        1.27490580       2.60269696       3.14941949       43       0.09173626       0.10928993       0.04187523
O        4.56607167       5.87484628       1.62165608       44       0.16740607      -0.10935387      -0.24588805
O        7.26253670       3.21774013       6.02417178       45      -0.02328859       0.32581019      -0.27482402
O        0.63436228       7.75365573       7.21065100       46       0.12128602       0.18673830       0.21689332
O        3.30318041       1.33234492       2.79561620       47      -0.15296918       0.01286340       0.20746981
O        0.69595603       2.86675547       8.37364874       48       0.21861285      -0.49890393      -0.09214251
O        3.29439340       6.24092514       3.98445646       49      -0.20137773       0.46206111      -0.20771727
O        4.56258993       1.69781828       0.43004403       50       0.07882127       0.43777397      -0.05118403
O        7.21834314       7.40745146       4.83855665       51      -0.02110596      -0.39159834       0.05069773
O        4.49697101       8.08334806       1.95038406       52      -0.03832694      -0.15983665      -0.17800066
O        7.31238765       1.01074494       6.37167750       53       0.08393067       0.16788393      -0.16972843
O        0.62106552       5.55345099       6.82086486       54      -0.15646648       0.03715175       0.10304540
O        3.36076676       3.54056060       2.45079181       55       0.13560405       0.00175949       0.11675765
O        1.54075265       0.01724824       0.84012391       56       0.01592159      -0.02720927      -0.33169574
O        2.42156949       9.07782225       5.25041021       57       0.01558620       0.09348030      -0.23507720
O        5.50645971       4.56625621       7.98181154       58      -0.09757961       0.14611378       0.15296949
O        6.30676608       4.52591326       3.57137977       59      -0.03479309      -0.03411331       0.27156472
O        1.15904572       8.08966495       2.80296144       60      -0.23516141       0.10697967      -0.16963950
O        2.81600307       1.01520156       7.20804253       61       0.17077121      -0.06580862      -0.12975654
O        5.10791719       5.57835085       6.01091790       62      -0.27193695      -0.04992333       0.18589032
O        6.69757196       3.52156010       1.59679743       63       0.23474154       0.08720593       0.16268054
O        6.83468866       0.25549550       0.26848184       64       0.06771620      -0.31956202       0.60315728
O        4.96544550       8.86810853       4.64721477       65      -0.00674379       0.32977110       0.71128291
O        2.96048508       4.31864355       8.56929946       66       0.09672900       0.41923067      -0.79811388
O        0.99762344       4.82661907       4.11450198       67       0.05520055      -0.27722773      -0.62351990
68
Lattice="7.84620935 0.0 0.0 0.0056393400306868555 9.097384272126547 0.0 0.03473782909175592 0.010029123877485894 8.814930277706335" Properties=species:S:1:pos:R:3:spacegroup_kinds:I:1:forces:R:3 spacegroup="P 1" unit_cell=conventional occupancy="_JSON {\"0\": {\"Fe\": 1}, \"1\": {\"Fe\": 1}, \"2\": {\"Fe\": 1}, \"3\": {\"Fe\": 1}, \"4\": {\"H\": 1}, \"5\": {\"H\": 1}, \"6\": {\"H\": 1}, \"7\": {\"H\": 1}, \"8\": {\"H\": 1}, \"9\": {\"H\": 1}, \"10\": {\"H\": 1}, \"11\": {\"H\": 1}, \"12\": {\"H\": 1}, \"13\": {\"H\": 1}, \"14\": {\"H\": 1}, \"15\": {\"H\": 1}, \"16\": {\"H\": 1}, \"17\": {\"H\": 1}, \"18\": {\"H\": 1}, \"19\": {\"H\": 1}, \"20\": {\"H\": 1}, \"21\": {\"H\": 1}, \"22\": {\"H\": 1}, \"23\": {\"H\": 1}, \"24\": {\"H\": 1}, \"25\": {\"H\": 1}, \"26\": {\"H\": 1}, \"27\": {\"H\": 1}, \"28\": {\"C\": 1}, \"29\": {\"C\": 1}, \"30\": {\"C\": 1}, \"31\": {\"C\": 1}, \"32\": {\"C\": 1}, \"33\": {\"C\": 1}, \"34\": {\"C\": 1}, \"35\": {\"C\": 1}, \"36\": {\"C\": 1}, \"37\": {\"C\": 1}, \"38\": {\"C\": 1}, \"39\": {\"C\": 1}, \"40\": {\"C\": 1}, \"41\": {\"C\": 1}, \"42\": {\"C\": 1}, \"43\": {\"C\": 1}, \"44\": {\"O\": 1}, \"45\": {\"O\": 1}, \"46\": {\"O\": 1}, \"47\": {\"O\": 1}, \"48\": {\"O\": 1}, \"49\": {\"O\": 1}, \"50\": {\"O\": 1}, \"51\": {\"O\": 1}, \"52\": {\"O\": 1}, \"53\": {\"O\": 1}, \"54\": {\"O\": 1}, \"55\": {\"O\": 1}, \"56\": {\"O\": 1}, \"57\": {\"O\": 1}, \"58\": {\"O\": 1}, \"59\": {\"O\": 1}, \"60\": {\"O\": 1}, \"61\": {\"O\": 1}, \"62\": {\"O\": 1}, \"63\": {\"O\": 1}, \"64\": {\"O\": 1}, \"65\": {\"O\": 1}, \"66\": {\"O\": 1}, \"67\": {\"O\": 1}}" energy=-433.8121032714844 free_energy=-433.8121032714844 stress="-0.003558994038030505 0.0003920480376109481 0.000507894204929471 0.0003920480376109481 0.009767463430762291 -0.00037976191379129887 0.000507894204929471 -0.00037976191379129887 0.004193410277366638" pbc="T T T"
Fe       0.82301405       0.66631764       7.82001503        0      -0.24051756       0.20604864       0.18329410
Fe       3.15564153       8.44099232       3.40861256        1       0.24382842      -0.26437947       0.21283844
Fe       4.71981643       3.88720839       0.99759088        2      -0.29698914      -0.24065496      -0.21255976
Fe       7.07257727       5.21768250       5.38796229        3       0.33116263       0.19155854      -0.17442378
H        0.01533320       3.08665348       0.28231492        4       0.08453598       0.08634463      -0.04471722
H        3.93451754       6.00779336       4.70836665        5      -0.11935936      -0.03841405      -0.00874298
H        3.96275590       1.46662100       8.51137758        6       0.22334531       0.00755846       0.14301977
H        7.86401071       7.64396915       4.10969872        7      -0.23760167      -0.00190404       0.14297213
H        0.30227160       3.23269009       7.53075663        8       0.00788415       0.07579072       0.00057283
H        3.70326704       5.86859929       3.15105071        9      -0.07623237      -0.05540361      -0.06120201
H        4.15530940       1.32339070       1.26092743       10       0.05914459      -0.05418587       0.06924613
H        7.62683716       7.77402701       5.67657596       11      -0.13389345      -0.00257628      -0.05798985
H        6.62042085       9.05066413       2.29665399       12       0.03563578       0.08014747       0.12211479
H        5.19828656       0.05984431       6.67373774       13      -0.07713484      -0.10660372       0.16370828
H        2.73406654       4.62343565       6.53160482       14       0.11378604      -0.08999232      -0.03299351
H        1.23006113       4.47738363       2.09039921       15      -0.08593983       0.09741557      -0.05703017
H        5.99785237       0.79677297       0.36372767       16      -0.22478403       0.13359030      -0.20683745
H        5.79958622       8.30860613       4.74264314       17       0.12533265      -0.02810602      -0.15360099
H        2.12046697       3.76861802       8.47456166       18      -0.11964817      -0.03066266       0.15379401
H        1.86318048       5.34316012       4.04378764       19       0.02851773       0.00489811       0.16382584
H        6.77567732       6.78211100       0.25224987       20      -0.09477791      -0.11126775       0.05675763
H        5.04735413       2.34707101       4.66258723       21       0.12673801       0.09661824       0.08450192
H        2.85341744       6.89249286       8.56885787       22      -0.14990954       0.07259382      -0.13630950
H        1.10800369       2.25040209       4.17621143       23       0.11491141      -0.11473674      -0.00008635
H        7.13251338       6.48421449       1.96432774       24       0.04645141       0.09936941       0.01881743
H        4.69814263       2.62809958       6.37438528       25      -0.08061623      -0.07424667       0.05945541
H        3.21803534       7.19592485       6.86451169       26       0.06885801      -0.12951434      -0.03676071
H        0.73673055       1.91339696       2.48199768       27      -0.06076688       0.10461549      -0.04720124
C        7.10433378       8.58567601       1.42453411       28       0.14321026      -0.05227697      -0.17319849
C        4.70124969       0.53477520       5.81539196       29       0.07947925      -0.15057540      -0.33310288
C        3.22074647       5.09312467       7.40405944       30      -0.12591355      -0.15831998       0.23296008
C        0.74574165       4.03125882       2.97525337       31       0.06086847      -0.10392656       0.07156402
C        0.76071296       8.60085717       1.69068736       32       0.03006449      -0.11393961       0.09684656
C        3.20227265       0.50931008       6.09173241       33       0.22648855       0.05586202      -0.05022936
C        4.71815091       5.08605087       7.13251653       34       0.04933140      -0.13565797       0.06031852
C        7.09138584       4.02633257       2.71001426       35       0.07510287      -0.01253282       0.11467703
C        5.12404634       7.02401388       1.61523484       36       0.03362939      -0.03313533       0.07699674
C        6.69734783       2.07657450       6.02574531       37       0.07525608       0.05394855       0.09852803
C        1.21851606       6.61825126       7.18377888       38      -0.06208980       0.20328431       0.06610309
C        2.74184023       2.48158003       2.79085441       39       0.05256167      -0.20590776       0.05722937
C        6.59333684       7.15027728       1.27387870       40      -0.07416368       0.09702098      -0.08264890
C        5.22977101       1.96267416       5.67976462       41      -0.02391060      -0.03922653      -0.19897537
C        2.68349735       6.51550602       7.54450926       42       0.02579501       0.05067214       0.23053616
C        1.27777863       2.60129846       3.14804499       43      -0.03278202       0.17084771       0.06268437
O        4.56850394       5.87745996       1.61940507       44       0.09205239      -0.25470060      -0.25176293
O        7.26485581       3.22025304       6.02371085       45      -0.15897343       0.12541774      -0.27535918
O        0.63482210       7.75523046       7.20863218       46       0.17942046       0.10377260       0.19999816
O        3.30135820       1.33129153       2.79738247       47      -0.15033586       0.04818800       0.18210386
O        0.69671948       2.86912263       8.37450984       48       0.24798040      -0.52596796      -0.14005524
O        3.29262544       6.24124698       3.98207112       49      -0.16105509       0.45015779      -0.14422156
O        4.56405433       1.70046491       0.43137937       50       0.07369539       0.39925677      -0.01166525
O        7.21719927       7.40478213       4.83798139       51       0.02570085      -0.33653384       0.11261331
O        4.49438735       8.08051481       1.95111565       52      -0.07692957       0.00419134      -0.15746933
O        7.31429460       1.01363665       6.37288389       53       0.04971940       0.12804191      -0.17830457
O        0.62051644       5.55412680       6.82217743       54      -0.14035645       0.02544983       0.09012838
O        3.36330393       3.54225822       2.45368692       55       0.08118973      -0.10560169       0.12112979
O        1.54086700       0.01661914       0.83725794       56      -0.05024082      -0.05588751      -0.28911781
O        2.42422348       9.07914833       5.24841195       57      -0.09401751       0.02796937      -0.32055873
O        5.50412646       4.56549294       7.98276120       58      -0.04691844       0.13967961       0.17910004
O        6.30645266       4.52372497       3.57223801       59      -0.00617966      -0.02237152       0.27332878
O        1.15976251       8.09246775       2.80423063       60      -0.29776967       0.16437976      -0.30296952
O        2.81852660       1.01263421       7.20637985       61       0.12716354      -0.04687816      -0.08959776
O        5.10843340       5.57772943       6.00948894       62      -0.30804056      -0.08976153       0.31969377
O        6.69668156       3.52204289       1.59790063       63       0.26773098       0.07966758       0.14656860
O        6.83626933       0.25355996       0.27033475       64       0.03587490      -0.25739643       0.53202575
O        4.96678694       8.86947179       4.65002463       65      -0.00657976       0.28629306       0.60989612
O        2.95899239       4.32100016       8.56738304       66       0.04063784       0.34752843      -0.74498332
O        0.99838113       4.82435867       4.11292520       67       0.13134179      -0.17493275      -0.53527331
68